<?xml version="1.0" encoding="UTF-8"?>

<!-- generated on Wed Feb 28 18:20:16 2024 by Eclipse SUMO GUI Version 1.4.0
<configuration xmlns:xsi="http://www.w3.org/2001/XMLSchema-instance" xsi:noNamespaceSchemaLocation="http://sumo.dlr.de/xsd/sumoConfiguration.xsd">

    <input>
        <net-file value="simple_network.net.xml"/>
        <route-files value="simple_100_clients.rou.xml"/>
    </input>

    <output>
        <fcd-output value="simple_100_clients.fcd.xml"/>
    </output>

    <time>
        <begin value="0"/>
        <end value="200"/>
    </time>

    <processing>
        <time-to-teleport value="-1"/>
    </processing>

</configuration>
-->

<fcd-export xmlns:xsi="http://www.w3.org/2001/XMLSchema-instance" xsi:noNamespaceSchemaLocation="http://sumo.dlr.de/xsd/fcd_file.xsd">
    <timestep time="0.00">
        <vehicle id="t0" x="90.15" y="401.65" angle="270.00" type="DEFAULT_VEHTYPE" speed="0.00" pos="5.10" lane="1/4to0/4_0" slope="0.00"/>
        <vehicle id="t1" x="409.85" y="898.35" angle="90.00" type="DEFAULT_VEHTYPE" speed="0.00" pos="5.10" lane="4/9to5/9_0" slope="0.00"/>
        <vehicle id="t10" x="798.35" y="690.15" angle="180.00" type="DEFAULT_VEHTYPE" speed="0.00" pos="5.10" lane="8/7to8/6_0" slope="0.00"/>
        <vehicle id="t11" x="190.15" y="201.65" angle="270.00" type="DEFAULT_VEHTYPE" speed="0.00" pos="5.10" lane="2/2to1/2_0" slope="0.00"/>
        <vehicle id="t12" x="298.35" y="390.15" angle="180.00" type="DEFAULT_VEHTYPE" speed="0.00" pos="5.10" lane="3/4to3/3_0" slope="0.00"/>
        <vehicle id="t13" x="198.35" y="490.15" angle="180.00" type="DEFAULT_VEHTYPE" speed="0.00" pos="5.10" lane="2/5to2/4_0" slope="0.00"/>
        <vehicle id="t14" x="701.65" y="209.85" angle="0.00" type="DEFAULT_VEHTYPE" speed="0.00" pos="5.10" lane="7/2to7/3_0" slope="0.00"/>
        <vehicle id="t15" x="590.15" y="1.65" angle="270.00" type="DEFAULT_VEHTYPE" speed="0.00" pos="5.10" lane="6/0to5/0_0" slope="0.00"/>
        <vehicle id="t16" x="98.35" y="890.15" angle="180.00" type="DEFAULT_VEHTYPE" speed="0.00" pos="5.10" lane="1/9to1/8_0" slope="0.00"/>
        <vehicle id="t17" x="-1.65" y="390.15" angle="180.00" type="DEFAULT_VEHTYPE" speed="0.00" pos="5.10" lane="0/4to0/3_0" slope="0.00"/>
        <vehicle id="t18" x="101.65" y="409.85" angle="0.00" type="DEFAULT_VEHTYPE" speed="0.00" pos="5.10" lane="1/4to1/5_0" slope="0.00"/>
        <vehicle id="t19" x="409.85" y="-1.65" angle="90.00" type="DEFAULT_VEHTYPE" speed="0.00" pos="5.10" lane="4/0to5/0_0" slope="0.00"/>
        <vehicle id="t2" x="290.15" y="701.65" angle="270.00" type="DEFAULT_VEHTYPE" speed="0.00" pos="5.10" lane="3/7to2/7_0" slope="0.00"/>
        <vehicle id="t20" x="509.85" y="498.35" angle="90.00" type="DEFAULT_VEHTYPE" speed="0.00" pos="5.10" lane="5/5to6/5_0" slope="0.00"/>
        <vehicle id="t21" x="698.35" y="90.15" angle="180.00" type="DEFAULT_VEHTYPE" speed="0.00" pos="5.10" lane="7/1to7/0_0" slope="0.00"/>
        <vehicle id="t22" x="301.65" y="609.85" angle="0.00" type="DEFAULT_VEHTYPE" speed="0.00" pos="5.10" lane="3/6to3/7_0" slope="0.00"/>
        <vehicle id="t25" x="798.35" y="90.15" angle="180.00" type="DEFAULT_VEHTYPE" speed="0.00" pos="5.10" lane="8/1to8/0_0" slope="0.00"/>
        <vehicle id="t26" x="498.35" y="490.15" angle="180.00" type="DEFAULT_VEHTYPE" speed="0.00" pos="5.10" lane="5/5to5/4_0" slope="0.00"/>
        <vehicle id="t27" x="501.65" y="609.85" angle="0.00" type="DEFAULT_VEHTYPE" speed="0.00" pos="5.10" lane="5/6to5/7_0" slope="0.00"/>
        <vehicle id="t28" x="201.65" y="809.85" angle="0.00" type="DEFAULT_VEHTYPE" speed="0.00" pos="5.10" lane="2/8to2/9_0" slope="0.00"/>
        <vehicle id="t29" x="798.35" y="890.15" angle="180.00" type="DEFAULT_VEHTYPE" speed="0.00" pos="5.10" lane="8/9to8/8_0" slope="0.00"/>
        <vehicle id="t3" x="898.35" y="590.15" angle="180.00" type="DEFAULT_VEHTYPE" speed="0.00" pos="5.10" lane="9/6to9/5_0" slope="0.00"/>
        <vehicle id="t30" x="301.65" y="109.85" angle="0.00" type="DEFAULT_VEHTYPE" speed="0.00" pos="5.10" lane="3/1to3/2_0" slope="0.00"/>
        <vehicle id="t31" x="890.15" y="801.65" angle="270.00" type="DEFAULT_VEHTYPE" speed="0.00" pos="5.10" lane="9/8to8/8_0" slope="0.00"/>
        <vehicle id="t32" x="9.85" y="798.35" angle="90.00" type="DEFAULT_VEHTYPE" speed="0.00" pos="5.10" lane="0/8to1/8_0" slope="0.00"/>
        <vehicle id="t33" x="801.65" y="9.85" angle="0.00" type="DEFAULT_VEHTYPE" speed="0.00" pos="5.10" lane="8/0to8/1_0" slope="0.00"/>
        <vehicle id="t34" x="790.15" y="701.65" angle="270.00" type="DEFAULT_VEHTYPE" speed="0.00" pos="5.10" lane="8/7to7/7_0" slope="0.00"/>
        <vehicle id="t36" x="709.85" y="298.35" angle="90.00" type="DEFAULT_VEHTYPE" speed="0.00" pos="5.10" lane="7/3to8/3_0" slope="0.00"/>
        <vehicle id="t37" x="898.35" y="490.15" angle="180.00" type="DEFAULT_VEHTYPE" speed="0.00" pos="5.10" lane="9/5to9/4_0" slope="0.00"/>
        <vehicle id="t38" x="509.85" y="898.35" angle="90.00" type="DEFAULT_VEHTYPE" speed="0.00" pos="5.10" lane="5/9to6/9_0" slope="0.00"/>
        <vehicle id="t39" x="-1.65" y="690.15" angle="180.00" type="DEFAULT_VEHTYPE" speed="0.00" pos="5.10" lane="0/7to0/6_0" slope="0.00"/>
        <vehicle id="t4" x="209.85" y="798.35" angle="90.00" type="DEFAULT_VEHTYPE" speed="0.00" pos="5.10" lane="2/8to3/8_0" slope="0.00"/>
        <vehicle id="t40" x="601.65" y="609.85" angle="0.00" type="DEFAULT_VEHTYPE" speed="0.00" pos="5.10" lane="6/6to6/7_0" slope="0.00"/>
        <vehicle id="t41" x="9.85" y="198.35" angle="90.00" type="DEFAULT_VEHTYPE" speed="0.00" pos="5.10" lane="0/2to1/2_0" slope="0.00"/>
        <vehicle id="t42" x="701.65" y="609.85" angle="0.00" type="DEFAULT_VEHTYPE" speed="0.00" pos="5.10" lane="7/6to7/7_0" slope="0.00"/>
        <vehicle id="t43" x="790.15" y="1.65" angle="270.00" type="DEFAULT_VEHTYPE" speed="0.00" pos="5.10" lane="8/0to7/0_0" slope="0.00"/>
        <vehicle id="t44" x="290.15" y="201.65" angle="270.00" type="DEFAULT_VEHTYPE" speed="0.00" pos="5.10" lane="3/2to2/2_0" slope="0.00"/>
        <vehicle id="t45" x="490.15" y="901.65" angle="270.00" type="DEFAULT_VEHTYPE" speed="0.00" pos="5.10" lane="5/9to4/9_0" slope="0.00"/>
        <vehicle id="t46" x="598.35" y="290.15" angle="180.00" type="DEFAULT_VEHTYPE" speed="0.00" pos="5.10" lane="6/3to6/2_0" slope="0.00"/>
        <vehicle id="t47" x="190.15" y="301.65" angle="270.00" type="DEFAULT_VEHTYPE" speed="0.00" pos="5.10" lane="2/3to1/3_0" slope="0.00"/>
        <vehicle id="t48" x="90.15" y="901.65" angle="270.00" type="DEFAULT_VEHTYPE" speed="0.00" pos="5.10" lane="1/9to0/9_0" slope="0.00"/>
        <vehicle id="t49" x="301.65" y="209.85" angle="0.00" type="DEFAULT_VEHTYPE" speed="0.00" pos="5.10" lane="3/2to3/3_0" slope="0.00"/>
        <vehicle id="t5" x="390.15" y="101.65" angle="270.00" type="DEFAULT_VEHTYPE" speed="0.00" pos="5.10" lane="4/1to3/1_0" slope="0.00"/>
        <vehicle id="t50" x="298.35" y="90.15" angle="180.00" type="DEFAULT_VEHTYPE" speed="0.00" pos="5.10" lane="3/1to3/0_0" slope="0.00"/>
        <vehicle id="t52" x="309.85" y="598.35" angle="90.00" type="DEFAULT_VEHTYPE" speed="0.00" pos="5.10" lane="3/6to4/6_0" slope="0.00"/>
        <vehicle id="t53" x="8.35" y="898.35" angle="90.00" type="DEFAULT_VEHTYPE" speed="0.00" pos="5.10" lane="0/9to1/9_0" slope="0.00"/>
        <vehicle id="t54" x="101.65" y="509.85" angle="0.00" type="DEFAULT_VEHTYPE" speed="0.00" pos="5.10" lane="1/5to1/6_0" slope="0.00"/>
        <vehicle id="t55" x="590.15" y="301.65" angle="270.00" type="DEFAULT_VEHTYPE" speed="0.00" pos="5.10" lane="6/3to5/3_0" slope="0.00"/>
        <vehicle id="t57" x="898.35" y="190.15" angle="180.00" type="DEFAULT_VEHTYPE" speed="0.00" pos="5.10" lane="9/2to9/1_0" slope="0.00"/>
        <vehicle id="t58" x="509.85" y="98.35" angle="90.00" type="DEFAULT_VEHTYPE" speed="0.00" pos="5.10" lane="5/1to6/1_0" slope="0.00"/>
        <vehicle id="t59" x="601.65" y="509.85" angle="0.00" type="DEFAULT_VEHTYPE" speed="0.00" pos="5.10" lane="6/5to6/6_0" slope="0.00"/>
        <vehicle id="t6" x="309.85" y="898.35" angle="90.00" type="DEFAULT_VEHTYPE" speed="0.00" pos="5.10" lane="3/9to4/9_0" slope="0.00"/>
        <vehicle id="t61" x="1.65" y="709.85" angle="0.00" type="DEFAULT_VEHTYPE" speed="0.00" pos="5.10" lane="0/7to0/8_0" slope="0.00"/>
        <vehicle id="t64" x="509.85" y="798.35" angle="90.00" type="DEFAULT_VEHTYPE" speed="0.00" pos="5.10" lane="5/8to6/8_0" slope="0.00"/>
        <vehicle id="t65" x="398.35" y="490.15" angle="180.00" type="DEFAULT_VEHTYPE" speed="0.00" pos="5.10" lane="4/5to4/4_0" slope="0.00"/>
        <vehicle id="t66" x="809.85" y="298.35" angle="90.00" type="DEFAULT_VEHTYPE" speed="0.00" pos="5.10" lane="8/3to9/3_0" slope="0.00"/>
        <vehicle id="t67" x="601.65" y="109.85" angle="0.00" type="DEFAULT_VEHTYPE" speed="0.00" pos="5.10" lane="6/1to6/2_0" slope="0.00"/>
        <vehicle id="t68" x="109.85" y="598.35" angle="90.00" type="DEFAULT_VEHTYPE" speed="0.00" pos="5.10" lane="1/6to2/6_0" slope="0.00"/>
        <vehicle id="t69" x="290.15" y="301.65" angle="270.00" type="DEFAULT_VEHTYPE" speed="0.00" pos="5.10" lane="3/3to2/3_0" slope="0.00"/>
        <vehicle id="t7" x="709.85" y="798.35" angle="90.00" type="DEFAULT_VEHTYPE" speed="0.00" pos="5.10" lane="7/8to8/8_0" slope="0.00"/>
        <vehicle id="t70" x="801.65" y="809.85" angle="0.00" type="DEFAULT_VEHTYPE" speed="0.00" pos="5.10" lane="8/8to8/9_0" slope="0.00"/>
        <vehicle id="t71" x="490.15" y="301.65" angle="270.00" type="DEFAULT_VEHTYPE" speed="0.00" pos="5.10" lane="5/3to4/3_0" slope="0.00"/>
        <vehicle id="t72" x="190.15" y="401.65" angle="270.00" type="DEFAULT_VEHTYPE" speed="0.00" pos="5.10" lane="2/4to1/4_0" slope="0.00"/>
        <vehicle id="t73" x="698.35" y="690.15" angle="180.00" type="DEFAULT_VEHTYPE" speed="0.00" pos="5.10" lane="7/7to7/6_0" slope="0.00"/>
        <vehicle id="t74" x="209.85" y="598.35" angle="90.00" type="DEFAULT_VEHTYPE" speed="0.00" pos="5.10" lane="2/6to3/6_0" slope="0.00"/>
        <vehicle id="t75" x="801.65" y="209.85" angle="0.00" type="DEFAULT_VEHTYPE" speed="0.00" pos="5.10" lane="8/2to8/3_0" slope="0.00"/>
        <vehicle id="t76" x="701.65" y="309.85" angle="0.00" type="DEFAULT_VEHTYPE" speed="0.00" pos="5.10" lane="7/3to7/4_0" slope="0.00"/>
        <vehicle id="t77" x="90.15" y="301.65" angle="270.00" type="DEFAULT_VEHTYPE" speed="0.00" pos="5.10" lane="1/3to0/3_0" slope="0.00"/>
        <vehicle id="t79" x="98.35" y="690.15" angle="180.00" type="DEFAULT_VEHTYPE" speed="0.00" pos="5.10" lane="1/7to1/6_0" slope="0.00"/>
        <vehicle id="t8" x="690.15" y="401.65" angle="270.00" type="DEFAULT_VEHTYPE" speed="0.00" pos="5.10" lane="7/4to6/4_0" slope="0.00"/>
        <vehicle id="t80" x="609.85" y="498.35" angle="90.00" type="DEFAULT_VEHTYPE" speed="0.00" pos="5.10" lane="6/5to7/5_0" slope="0.00"/>
        <vehicle id="t81" x="490.15" y="1.65" angle="270.00" type="DEFAULT_VEHTYPE" speed="0.00" pos="5.10" lane="5/0to4/0_0" slope="0.00"/>
        <vehicle id="t82" x="490.15" y="601.65" angle="270.00" type="DEFAULT_VEHTYPE" speed="0.00" pos="5.10" lane="5/6to4/6_0" slope="0.00"/>
        <vehicle id="t83" x="590.15" y="601.65" angle="270.00" type="DEFAULT_VEHTYPE" speed="0.00" pos="5.10" lane="6/6to5/6_0" slope="0.00"/>
        <vehicle id="t85" x="401.65" y="9.85" angle="0.00" type="DEFAULT_VEHTYPE" speed="0.00" pos="5.10" lane="4/0to4/1_0" slope="0.00"/>
        <vehicle id="t86" x="498.35" y="790.15" angle="180.00" type="DEFAULT_VEHTYPE" speed="0.00" pos="5.10" lane="5/8to5/7_0" slope="0.00"/>
        <vehicle id="t87" x="190.15" y="801.65" angle="270.00" type="DEFAULT_VEHTYPE" speed="0.00" pos="5.10" lane="2/8to1/8_0" slope="0.00"/>
        <vehicle id="t88" x="891.65" y="901.65" angle="270.00" type="DEFAULT_VEHTYPE" speed="0.00" pos="5.10" lane="9/9to8/9_0" slope="0.00"/>
        <vehicle id="t89" x="490.15" y="201.65" angle="270.00" type="DEFAULT_VEHTYPE" speed="0.00" pos="5.10" lane="5/2to4/2_0" slope="0.00"/>
        <vehicle id="t9" x="609.85" y="798.35" angle="90.00" type="DEFAULT_VEHTYPE" speed="0.00" pos="5.10" lane="6/8to7/8_0" slope="0.00"/>
        <vehicle id="t90" x="501.65" y="509.85" angle="0.00" type="DEFAULT_VEHTYPE" speed="0.00" pos="5.10" lane="5/5to5/6_0" slope="0.00"/>
        <vehicle id="t91" x="809.85" y="598.35" angle="90.00" type="DEFAULT_VEHTYPE" speed="0.00" pos="5.10" lane="8/6to9/6_0" slope="0.00"/>
        <vehicle id="t93" x="398.35" y="590.15" angle="180.00" type="DEFAULT_VEHTYPE" speed="0.00" pos="5.10" lane="4/6to4/5_0" slope="0.00"/>
        <vehicle id="t94" x="498.35" y="890.15" angle="180.00" type="DEFAULT_VEHTYPE" speed="0.00" pos="5.10" lane="5/9to5/8_0" slope="0.00"/>
        <vehicle id="t95" x="-1.65" y="290.15" angle="180.00" type="DEFAULT_VEHTYPE" speed="0.00" pos="5.10" lane="0/3to0/2_0" slope="0.00"/>
        <vehicle id="t96" x="301.65" y="309.85" angle="0.00" type="DEFAULT_VEHTYPE" speed="0.00" pos="5.10" lane="3/3to3/4_0" slope="0.00"/>
        <vehicle id="t97" x="209.85" y="198.35" angle="90.00" type="DEFAULT_VEHTYPE" speed="0.00" pos="5.10" lane="2/2to3/2_0" slope="0.00"/>
        <vehicle id="t98" x="309.85" y="198.35" angle="90.00" type="DEFAULT_VEHTYPE" speed="0.00" pos="5.10" lane="3/2to4/2_0" slope="0.00"/>
        <vehicle id="t99" x="601.65" y="809.85" angle="0.00" type="DEFAULT_VEHTYPE" speed="0.00" pos="5.10" lane="6/8to6/9_0" slope="0.00"/>
    </timestep>
    <timestep time="1.00">
        <vehicle id="t0" x="88.79" y="401.65" angle="270.00" type="DEFAULT_VEHTYPE" speed="1.36" pos="6.46" lane="1/4to0/4_0" slope="0.00"/>
        <vehicle id="t1" x="412.33" y="898.35" angle="90.00" type="DEFAULT_VEHTYPE" speed="2.48" pos="7.58" lane="4/9to5/9_0" slope="0.00"/>
        <vehicle id="t10" x="798.35" y="688.82" angle="180.00" type="DEFAULT_VEHTYPE" speed="1.33" pos="6.43" lane="8/7to8/6_0" slope="0.00"/>
        <vehicle id="t11" x="188.01" y="201.65" angle="270.00" type="DEFAULT_VEHTYPE" speed="2.14" pos="7.24" lane="2/2to1/2_0" slope="0.00"/>
        <vehicle id="t12" x="298.35" y="387.97" angle="180.00" type="DEFAULT_VEHTYPE" speed="2.18" pos="7.28" lane="3/4to3/3_0" slope="0.00"/>
        <vehicle id="t13" x="198.35" y="488.40" angle="180.00" type="DEFAULT_VEHTYPE" speed="1.75" pos="6.85" lane="2/5to2/4_0" slope="0.00"/>
        <vehicle id="t14" x="701.65" y="211.39" angle="0.00" type="DEFAULT_VEHTYPE" speed="1.54" pos="6.64" lane="7/2to7/3_0" slope="0.00"/>
        <vehicle id="t15" x="588.40" y="1.65" angle="270.00" type="DEFAULT_VEHTYPE" speed="1.75" pos="6.85" lane="6/0to5/0_0" slope="0.00"/>
        <vehicle id="t16" x="98.35" y="888.23" angle="180.00" type="DEFAULT_VEHTYPE" speed="1.92" pos="7.02" lane="1/9to1/8_0" slope="0.00"/>
        <vehicle id="t17" x="-1.65" y="387.60" angle="180.00" type="DEFAULT_VEHTYPE" speed="2.55" pos="7.65" lane="0/4to0/3_0" slope="0.00"/>
        <vehicle id="t18" x="101.65" y="412.36" angle="0.00" type="DEFAULT_VEHTYPE" speed="2.51" pos="7.61" lane="1/4to1/5_0" slope="0.00"/>
        <vehicle id="t19" x="411.98" y="-1.65" angle="90.00" type="DEFAULT_VEHTYPE" speed="2.13" pos="7.23" lane="4/0to5/0_0" slope="0.00"/>
        <vehicle id="t2" x="287.60" y="701.65" angle="270.00" type="DEFAULT_VEHTYPE" speed="2.55" pos="7.65" lane="3/7to2/7_0" slope="0.00"/>
        <vehicle id="t20" x="512.21" y="498.35" angle="90.00" type="DEFAULT_VEHTYPE" speed="2.36" pos="7.46" lane="5/5to6/5_0" slope="0.00"/>
        <vehicle id="t21" x="698.35" y="88.36" angle="180.00" type="DEFAULT_VEHTYPE" speed="1.79" pos="6.89" lane="7/1to7/0_0" slope="0.00"/>
        <vehicle id="t22" x="301.65" y="611.83" angle="0.00" type="DEFAULT_VEHTYPE" speed="1.98" pos="7.08" lane="3/6to3/7_0" slope="0.00"/>
        <vehicle id="t25" x="798.35" y="87.83" angle="180.00" type="DEFAULT_VEHTYPE" speed="2.32" pos="7.42" lane="8/1to8/0_0" slope="0.00"/>
        <vehicle id="t26" x="498.35" y="488.30" angle="180.00" type="DEFAULT_VEHTYPE" speed="1.85" pos="6.95" lane="5/5to5/4_0" slope="0.00"/>
        <vehicle id="t27" x="501.65" y="611.70" angle="0.00" type="DEFAULT_VEHTYPE" speed="1.85" pos="6.95" lane="5/6to5/7_0" slope="0.00"/>
        <vehicle id="t28" x="201.65" y="811.25" angle="0.00" type="DEFAULT_VEHTYPE" speed="1.40" pos="6.50" lane="2/8to2/9_0" slope="0.00"/>
        <vehicle id="t29" x="798.35" y="888.79" angle="180.00" type="DEFAULT_VEHTYPE" speed="1.36" pos="6.46" lane="8/9to8/8_0" slope="0.00"/>
        <vehicle id="t3" x="898.35" y="588.13" angle="180.00" type="DEFAULT_VEHTYPE" speed="2.02" pos="7.12" lane="9/6to9/5_0" slope="0.00"/>
        <vehicle id="t30" x="301.65" y="111.97" angle="0.00" type="DEFAULT_VEHTYPE" speed="2.12" pos="7.22" lane="3/1to3/2_0" slope="0.00"/>
        <vehicle id="t31" x="888.11" y="801.65" angle="270.00" type="DEFAULT_VEHTYPE" speed="2.04" pos="7.14" lane="9/8to8/8_0" slope="0.00"/>
        <vehicle id="t32" x="12.45" y="798.35" angle="90.00" type="DEFAULT_VEHTYPE" speed="2.60" pos="7.70" lane="0/8to1/8_0" slope="0.00"/>
        <vehicle id="t33" x="801.65" y="12.33" angle="0.00" type="DEFAULT_VEHTYPE" speed="2.48" pos="7.58" lane="8/0to8/1_0" slope="0.00"/>
        <vehicle id="t34" x="787.94" y="701.65" angle="270.00" type="DEFAULT_VEHTYPE" speed="2.21" pos="7.31" lane="8/7to7/7_0" slope="0.00"/>
        <vehicle id="t36" x="711.95" y="298.35" angle="90.00" type="DEFAULT_VEHTYPE" speed="2.10" pos="7.20" lane="7/3to8/3_0" slope="0.00"/>
        <vehicle id="t37" x="898.35" y="488.71" angle="180.00" type="DEFAULT_VEHTYPE" speed="1.44" pos="6.54" lane="9/5to9/4_0" slope="0.00"/>
        <vehicle id="t38" x="512.05" y="898.35" angle="90.00" type="DEFAULT_VEHTYPE" speed="2.20" pos="7.30" lane="5/9to6/9_0" slope="0.00"/>
        <vehicle id="t39" x="-1.65" y="688.83" angle="180.00" type="DEFAULT_VEHTYPE" speed="1.32" pos="6.42" lane="0/7to0/6_0" slope="0.00"/>
        <vehicle id="t4" x="211.19" y="798.35" angle="90.00" type="DEFAULT_VEHTYPE" speed="1.34" pos="6.44" lane="2/8to3/8_0" slope="0.00"/>
        <vehicle id="t40" x="601.65" y="611.81" angle="0.00" type="DEFAULT_VEHTYPE" speed="1.96" pos="7.06" lane="6/6to6/7_0" slope="0.00"/>
        <vehicle id="t41" x="11.23" y="198.35" angle="90.00" type="DEFAULT_VEHTYPE" speed="1.38" pos="6.48" lane="0/2to1/2_0" slope="0.00"/>
        <vehicle id="t42" x="701.65" y="611.53" angle="0.00" type="DEFAULT_VEHTYPE" speed="1.68" pos="6.78" lane="7/6to7/7_0" slope="0.00"/>
        <vehicle id="t43" x="788.62" y="1.65" angle="270.00" type="DEFAULT_VEHTYPE" speed="1.53" pos="6.63" lane="8/0to7/0_0" slope="0.00"/>
        <vehicle id="t44" x="287.63" y="201.65" angle="270.00" type="DEFAULT_VEHTYPE" speed="2.52" pos="7.62" lane="3/2to2/2_0" slope="0.00"/>
        <vehicle id="t45" x="487.90" y="901.65" angle="270.00" type="DEFAULT_VEHTYPE" speed="2.25" pos="7.35" lane="5/9to4/9_0" slope="0.00"/>
        <vehicle id="t46" x="598.35" y="288.33" angle="180.00" type="DEFAULT_VEHTYPE" speed="1.82" pos="6.92" lane="6/3to6/2_0" slope="0.00"/>
        <vehicle id="t47" x="188.48" y="301.65" angle="270.00" type="DEFAULT_VEHTYPE" speed="1.67" pos="6.77" lane="2/3to1/3_0" slope="0.00"/>
        <vehicle id="t48" x="87.68" y="901.65" angle="270.00" type="DEFAULT_VEHTYPE" speed="2.47" pos="7.57" lane="1/9to0/9_0" slope="0.00"/>
        <vehicle id="t49" x="301.65" y="211.82" angle="0.00" type="DEFAULT_VEHTYPE" speed="1.97" pos="7.07" lane="3/2to3/3_0" slope="0.00"/>
        <vehicle id="t5" x="387.85" y="101.65" angle="270.00" type="DEFAULT_VEHTYPE" speed="2.30" pos="7.40" lane="4/1to3/1_0" slope="0.00"/>
        <vehicle id="t50" x="298.35" y="88.48" angle="180.00" type="DEFAULT_VEHTYPE" speed="1.67" pos="6.77" lane="3/1to3/0_0" slope="0.00"/>
        <vehicle id="t52" x="311.23" y="598.35" angle="90.00" type="DEFAULT_VEHTYPE" speed="1.38" pos="6.48" lane="3/6to4/6_0" slope="0.00"/>
        <vehicle id="t53" x="10.69" y="898.35" angle="90.00" type="DEFAULT_VEHTYPE" speed="2.34" pos="7.44" lane="0/9to1/9_0" slope="0.00"/>
        <vehicle id="t54" x="101.65" y="511.64" angle="0.00" type="DEFAULT_VEHTYPE" speed="1.79" pos="6.89" lane="1/5to1/6_0" slope="0.00"/>
        <vehicle id="t55" x="588.44" y="301.65" angle="270.00" type="DEFAULT_VEHTYPE" speed="1.71" pos="6.81" lane="6/3to5/3_0" slope="0.00"/>
        <vehicle id="t57" x="898.35" y="187.77" angle="180.00" type="DEFAULT_VEHTYPE" speed="2.38" pos="7.48" lane="9/2to9/1_0" slope="0.00"/>
        <vehicle id="t58" x="511.39" y="98.35" angle="90.00" type="DEFAULT_VEHTYPE" speed="1.54" pos="6.64" lane="5/1to6/1_0" slope="0.00"/>
        <vehicle id="t59" x="601.65" y="511.48" angle="0.00" type="DEFAULT_VEHTYPE" speed="1.63" pos="6.73" lane="6/5to6/6_0" slope="0.00"/>
        <vehicle id="t6" x="311.74" y="898.35" angle="90.00" type="DEFAULT_VEHTYPE" speed="1.89" pos="6.99" lane="3/9to4/9_0" slope="0.00"/>
        <vehicle id="t61" x="1.65" y="711.40" angle="0.00" type="DEFAULT_VEHTYPE" speed="1.55" pos="6.65" lane="0/7to0/8_0" slope="0.00"/>
        <vehicle id="t64" x="512.07" y="798.35" angle="90.00" type="DEFAULT_VEHTYPE" speed="2.22" pos="7.32" lane="5/8to6/8_0" slope="0.00"/>
        <vehicle id="t65" x="398.35" y="488.16" angle="180.00" type="DEFAULT_VEHTYPE" speed="1.99" pos="7.09" lane="4/5to4/4_0" slope="0.00"/>
        <vehicle id="t66" x="811.28" y="298.35" angle="90.00" type="DEFAULT_VEHTYPE" speed="1.43" pos="6.53" lane="8/3to9/3_0" slope="0.00"/>
        <vehicle id="t67" x="601.65" y="112.34" angle="0.00" type="DEFAULT_VEHTYPE" speed="2.49" pos="7.59" lane="6/1to6/2_0" slope="0.00"/>
        <vehicle id="t68" x="111.48" y="598.35" angle="90.00" type="DEFAULT_VEHTYPE" speed="1.63" pos="6.73" lane="1/6to2/6_0" slope="0.00"/>
        <vehicle id="t69" x="288.39" y="301.65" angle="270.00" type="DEFAULT_VEHTYPE" speed="1.76" pos="6.86" lane="3/3to2/3_0" slope="0.00"/>
        <vehicle id="t7" x="711.34" y="798.35" angle="90.00" type="DEFAULT_VEHTYPE" speed="1.49" pos="6.59" lane="7/8to8/8_0" slope="0.00"/>
        <vehicle id="t70" x="801.65" y="811.53" angle="0.00" type="DEFAULT_VEHTYPE" speed="1.68" pos="6.78" lane="8/8to8/9_0" slope="0.00"/>
        <vehicle id="t71" x="488.63" y="301.65" angle="270.00" type="DEFAULT_VEHTYPE" speed="1.52" pos="6.62" lane="5/3to4/3_0" slope="0.00"/>
        <vehicle id="t72" x="187.94" y="401.65" angle="270.00" type="DEFAULT_VEHTYPE" speed="2.21" pos="7.31" lane="2/4to1/4_0" slope="0.00"/>
        <vehicle id="t73" x="698.35" y="688.20" angle="180.00" type="DEFAULT_VEHTYPE" speed="1.95" pos="7.05" lane="7/7to7/6_0" slope="0.00"/>
        <vehicle id="t74" x="211.88" y="598.35" angle="90.00" type="DEFAULT_VEHTYPE" speed="2.03" pos="7.13" lane="2/6to3/6_0" slope="0.00"/>
        <vehicle id="t75" x="801.65" y="211.40" angle="0.00" type="DEFAULT_VEHTYPE" speed="1.55" pos="6.65" lane="8/2to8/3_0" slope="0.00"/>
        <vehicle id="t76" x="701.65" y="311.32" angle="0.00" type="DEFAULT_VEHTYPE" speed="1.47" pos="6.57" lane="7/3to7/4_0" slope="0.00"/>
        <vehicle id="t77" x="88.19" y="301.65" angle="270.00" type="DEFAULT_VEHTYPE" speed="1.96" pos="7.06" lane="1/3to0/3_0" slope="0.00"/>
        <vehicle id="t79" x="98.35" y="688.64" angle="180.00" type="DEFAULT_VEHTYPE" speed="1.51" pos="6.61" lane="1/7to1/6_0" slope="0.00"/>
        <vehicle id="t8" x="687.81" y="401.65" angle="270.00" type="DEFAULT_VEHTYPE" speed="2.34" pos="7.44" lane="7/4to6/4_0" slope="0.00"/>
        <vehicle id="t80" x="612.07" y="498.35" angle="90.00" type="DEFAULT_VEHTYPE" speed="2.22" pos="7.32" lane="6/5to7/5_0" slope="0.00"/>
        <vehicle id="t81" x="488.16" y="1.65" angle="270.00" type="DEFAULT_VEHTYPE" speed="1.99" pos="7.09" lane="5/0to4/0_0" slope="0.00"/>
        <vehicle id="t82" x="487.94" y="601.65" angle="270.00" type="DEFAULT_VEHTYPE" speed="2.21" pos="7.31" lane="5/6to4/6_0" slope="0.00"/>
        <vehicle id="t83" x="588.43" y="601.65" angle="270.00" type="DEFAULT_VEHTYPE" speed="1.72" pos="6.82" lane="6/6to5/6_0" slope="0.00"/>
        <vehicle id="t85" x="401.65" y="11.74" angle="0.00" type="DEFAULT_VEHTYPE" speed="1.89" pos="6.99" lane="4/0to4/1_0" slope="0.00"/>
        <vehicle id="t86" x="498.35" y="787.65" angle="180.00" type="DEFAULT_VEHTYPE" speed="2.50" pos="7.60" lane="5/8to5/7_0" slope="0.00"/>
        <vehicle id="t87" x="187.64" y="801.65" angle="270.00" type="DEFAULT_VEHTYPE" speed="2.51" pos="7.61" lane="2/8to1/8_0" slope="0.00"/>
        <vehicle id="t88" x="889.23" y="901.65" angle="270.00" type="DEFAULT_VEHTYPE" speed="2.42" pos="7.52" lane="9/9to8/9_0" slope="0.00"/>
        <vehicle id="t89" x="487.90" y="201.65" angle="270.00" type="DEFAULT_VEHTYPE" speed="2.25" pos="7.35" lane="5/2to4/2_0" slope="0.00"/>
        <vehicle id="t9" x="611.43" y="798.35" angle="90.00" type="DEFAULT_VEHTYPE" speed="1.58" pos="6.68" lane="6/8to7/8_0" slope="0.00"/>
        <vehicle id="t90" x="501.65" y="511.26" angle="0.00" type="DEFAULT_VEHTYPE" speed="1.41" pos="6.51" lane="5/5to5/6_0" slope="0.00"/>
        <vehicle id="t91" x="811.57" y="598.35" angle="90.00" type="DEFAULT_VEHTYPE" speed="1.72" pos="6.82" lane="8/6to9/6_0" slope="0.00"/>
        <vehicle id="t93" x="398.35" y="588.14" angle="180.00" type="DEFAULT_VEHTYPE" speed="2.01" pos="7.11" lane="4/6to4/5_0" slope="0.00"/>
        <vehicle id="t94" x="498.35" y="888.71" angle="180.00" type="DEFAULT_VEHTYPE" speed="1.44" pos="6.54" lane="5/9to5/8_0" slope="0.00"/>
        <vehicle id="t95" x="-1.65" y="288.16" angle="180.00" type="DEFAULT_VEHTYPE" speed="1.99" pos="7.09" lane="0/3to0/2_0" slope="0.00"/>
        <vehicle id="t96" x="301.65" y="311.15" angle="0.00" type="DEFAULT_VEHTYPE" speed="1.30" pos="6.40" lane="3/3to3/4_0" slope="0.00"/>
        <vehicle id="t97" x="212.43" y="198.35" angle="90.00" type="DEFAULT_VEHTYPE" speed="2.58" pos="7.68" lane="2/2to3/2_0" slope="0.00"/>
        <vehicle id="t98" x="312.24" y="198.35" angle="90.00" type="DEFAULT_VEHTYPE" speed="2.39" pos="7.49" lane="3/2to4/2_0" slope="0.00"/>
        <vehicle id="t99" x="601.65" y="811.71" angle="0.00" type="DEFAULT_VEHTYPE" speed="1.86" pos="6.96" lane="6/8to6/9_0" slope="0.00"/>
    </timestep>
    <timestep time="2.00">
        <vehicle id="t0" x="85.93" y="401.65" angle="270.00" type="DEFAULT_VEHTYPE" speed="2.86" pos="9.32" lane="1/4to0/4_0" slope="0.00"/>
        <vehicle id="t1" x="416.22" y="898.35" angle="90.00" type="DEFAULT_VEHTYPE" speed="3.90" pos="11.47" lane="4/9to5/9_0" slope="0.00"/>
        <vehicle id="t10" x="798.35" y="684.95" angle="180.00" type="DEFAULT_VEHTYPE" speed="3.87" pos="10.30" lane="8/7to8/6_0" slope="0.00"/>
        <vehicle id="t11" x="184.24" y="201.65" angle="270.00" type="DEFAULT_VEHTYPE" speed="3.77" pos="11.01" lane="2/2to1/2_0" slope="0.00"/>
        <vehicle id="t12" x="298.35" y="383.82" angle="180.00" type="DEFAULT_VEHTYPE" speed="4.15" pos="11.43" lane="3/4to3/3_0" slope="0.00"/>
        <vehicle id="t13" x="198.35" y="484.96" angle="180.00" type="DEFAULT_VEHTYPE" speed="3.43" pos="10.29" lane="2/5to2/4_0" slope="0.00"/>
        <vehicle id="t14" x="701.65" y="215.04" angle="0.00" type="DEFAULT_VEHTYPE" speed="3.66" pos="10.29" lane="7/2to7/3_0" slope="0.00"/>
        <vehicle id="t15" x="584.74" y="1.65" angle="270.00" type="DEFAULT_VEHTYPE" speed="3.66" pos="10.51" lane="6/0to5/0_0" slope="0.00"/>
        <vehicle id="t16" x="98.35" y="884.31" angle="180.00" type="DEFAULT_VEHTYPE" speed="3.92" pos="10.94" lane="1/9to1/8_0" slope="0.00"/>
        <vehicle id="t17" x="-1.65" y="382.63" angle="180.00" type="DEFAULT_VEHTYPE" speed="4.97" pos="12.62" lane="0/4to0/3_0" slope="0.00"/>
        <vehicle id="t18" x="101.65" y="416.20" angle="0.00" type="DEFAULT_VEHTYPE" speed="3.85" pos="11.45" lane="1/4to1/5_0" slope="0.00"/>
        <vehicle id="t19" x="415.87" y="-1.65" angle="90.00" type="DEFAULT_VEHTYPE" speed="3.89" pos="11.12" lane="4/0to5/0_0" slope="0.00"/>
        <vehicle id="t2" x="282.52" y="701.65" angle="270.00" type="DEFAULT_VEHTYPE" speed="5.08" pos="12.73" lane="3/7to2/7_0" slope="0.00"/>
        <vehicle id="t20" x="516.19" y="498.35" angle="90.00" type="DEFAULT_VEHTYPE" speed="3.98" pos="11.44" lane="5/5to6/5_0" slope="0.00"/>
        <vehicle id="t21" x="698.35" y="84.47" angle="180.00" type="DEFAULT_VEHTYPE" speed="3.90" pos="10.78" lane="7/1to7/0_0" slope="0.00"/>
        <vehicle id="t22" x="301.65" y="615.14" angle="0.00" type="DEFAULT_VEHTYPE" speed="3.31" pos="10.39" lane="3/6to3/7_0" slope="0.00"/>
        <vehicle id="t25" x="798.35" y="83.04" angle="180.00" type="DEFAULT_VEHTYPE" speed="4.78" pos="12.21" lane="8/1to8/0_0" slope="0.00"/>
        <vehicle id="t26" x="498.35" y="485.04" angle="180.00" type="DEFAULT_VEHTYPE" speed="3.27" pos="10.21" lane="5/5to5/4_0" slope="0.00"/>
        <vehicle id="t27" x="501.65" y="616.15" angle="0.00" type="DEFAULT_VEHTYPE" speed="4.45" pos="11.40" lane="5/6to5/7_0" slope="0.00"/>
        <vehicle id="t28" x="201.65" y="814.29" angle="0.00" type="DEFAULT_VEHTYPE" speed="3.04" pos="9.54" lane="2/8to2/9_0" slope="0.00"/>
        <vehicle id="t29" x="798.35" y="885.70" angle="180.00" type="DEFAULT_VEHTYPE" speed="3.09" pos="9.55" lane="8/9to8/8_0" slope="0.00"/>
        <vehicle id="t3" x="898.35" y="584.28" angle="180.00" type="DEFAULT_VEHTYPE" speed="3.85" pos="10.97" lane="9/6to9/5_0" slope="0.00"/>
        <vehicle id="t30" x="301.65" y="115.71" angle="0.00" type="DEFAULT_VEHTYPE" speed="3.74" pos="10.96" lane="3/1to3/2_0" slope="0.00"/>
        <vehicle id="t31" x="883.91" y="801.65" angle="270.00" type="DEFAULT_VEHTYPE" speed="4.19" pos="11.34" lane="9/8to8/8_0" slope="0.00"/>
        <vehicle id="t32" x="16.79" y="798.35" angle="90.00" type="DEFAULT_VEHTYPE" speed="4.34" pos="12.04" lane="0/8to1/8_0" slope="0.00"/>
        <vehicle id="t33" x="801.65" y="17.20" angle="0.00" type="DEFAULT_VEHTYPE" speed="4.87" pos="12.45" lane="8/0to8/1_0" slope="0.00"/>