<?xml version="1.0" encoding="UTF-8"?>

<!-- generated on Wed Feb 28 18:20:32 2024 by Eclipse SUMO GUI Version 1.4.0
<configuration xmlns:xsi="http://www.w3.org/2001/XMLSchema-instance" xsi:noNamespaceSchemaLocation="http://sumo.dlr.de/xsd/sumoConfiguration.xsd">

    <input>
        <net-file value="simple_network.net.xml"/>
        <route-files value="simple_200_clients.rou.xml"/>
    </input>

    <output>
        <fcd-output value="simple_200_clients.fcd.xml"/>
    </output>

    <time>
        <begin value="0"/>
        <end value="200"/>
    </time>

    <processing>
        <time-to-teleport value="-1"/>
    </processing>

</configuration>
-->

<fcd-export xmlns:xsi="http://www.w3.org/2001/XMLSchema-instance" xsi:noNamespaceSchemaLocation="http://sumo.dlr.de/xsd/fcd_file.xsd">
    <timestep time="0.00">
        <vehicle id="t0" x="101.65" y="809.85" angle="0.00" type="DEFAULT_VEHTYPE" speed="0.00" pos="5.10" lane="1/8to1/9_0" slope="0.00"/>
        <vehicle id="t1" x="401.65" y="309.85" angle="0.00" type="DEFAULT_VEHTYPE" speed="0.00" pos="5.10" lane="4/3to4/4_0" slope="0.00"/>
        <vehicle id="t10" x="898.35" y="690.15" angle="180.00" type="DEFAULT_VEHTYPE" speed="0.00" pos="5.10" lane="9/7to9/6_0" slope="0.00"/>
        <vehicle id="t101" x="590.15" y="1.65" angle="270.00" type="DEFAULT_VEHTYPE" speed="0.00" pos="5.10" lane="6/0to5/0_0" slope="0.00"/>
        <vehicle id="t102" x="701.65" y="709.85" angle="0.00" type="DEFAULT_VEHTYPE" speed="0.00" pos="5.10" lane="7/7to7/8_0" slope="0.00"/>
        <vehicle id="t103" x="90.15" y="401.65" angle="270.00" type="DEFAULT_VEHTYPE" speed="0.00" pos="5.10" lane="1/4to0/4_0" slope="0.00"/>
        <vehicle id="t104" x="698.35" y="590.15" angle="180.00" type="DEFAULT_VEHTYPE" speed="0.00" pos="5.10" lane="7/6to7/5_0" slope="0.00"/>
        <vehicle id="t105" x="609.85" y="698.35" angle="90.00" type="DEFAULT_VEHTYPE" speed="0.00" pos="5.10" lane="6/7to7/7_0" slope="0.00"/>
        <vehicle id="t106" x="309.85" y="598.35" angle="90.00" type="DEFAULT_VEHTYPE" speed="0.00" pos="5.10" lane="3/6to4/6_0" slope="0.00"/>
        <vehicle id="t108" x="209.85" y="298.35" angle="90.00" type="DEFAULT_VEHTYPE" speed="0.00" pos="5.10" lane="2/3to3/3_0" slope="0.00"/>
        <vehicle id="t11" x="498.35" y="90.15" angle="180.00" type="DEFAULT_VEHTYPE" speed="0.00" pos="5.10" lane="5/1to5/0_0" slope="0.00"/>
        <vehicle id="t110" x="-1.65" y="390.15" angle="180.00" type="DEFAULT_VEHTYPE" speed="0.00" pos="5.10" lane="0/4to0/3_0" slope="0.00"/>
        <vehicle id="t111" x="390.15" y="101.65" angle="270.00" type="DEFAULT_VEHTYPE" speed="0.00" pos="5.10" lane="4/1to3/1_0" slope="0.00"/>
        <vehicle id="t114" x="801.65" y="109.85" angle="0.00" type="DEFAULT_VEHTYPE" speed="0.00" pos="5.10" lane="8/1to8/2_0" slope="0.00"/>
        <vehicle id="t115" x="790.15" y="501.65" angle="270.00" type="DEFAULT_VEHTYPE" speed="0.00" pos="5.10" lane="8/5to7/5_0" slope="0.00"/>
        <vehicle id="t116" x="601.65" y="209.85" angle="0.00" type="DEFAULT_VEHTYPE" speed="0.00" pos="5.10" lane="6/2to6/3_0" slope="0.00"/>
        <vehicle id="t117" x="1.65" y="809.85" angle="0.00" type="DEFAULT_VEHTYPE" speed="0.00" pos="5.10" lane="0/8to0/9_0" slope="0.00"/>
        <vehicle id="t12" x="798.35" y="390.15" angle="180.00" type="DEFAULT_VEHTYPE" speed="0.00" pos="5.10" lane="8/4to8/3_0" slope="0.00"/>
        <vehicle id="t122" x="409.85" y="698.35" angle="90.00" type="DEFAULT_VEHTYPE" speed="0.00" pos="5.10" lane="4/7to5/7_0" slope="0.00"/>
        <vehicle id="t123" x="709.85" y="698.35" angle="90.00" type="DEFAULT_VEHTYPE" speed="0.00" pos="5.10" lane="7/7to8/7_0" slope="0.00"/>
        <vehicle id="t124" x="501.65" y="9.85" angle="0.00" type="DEFAULT_VEHTYPE" speed="0.00" pos="5.10" lane="5/0to5/1_0" slope="0.00"/>
        <vehicle id="t125" x="790.15" y="701.65" angle="270.00" type="DEFAULT_VEHTYPE" speed="0.00" pos="5.10" lane="8/7to7/7_0" slope="0.00"/>
        <vehicle id="t126" x="598.35" y="690.15" angle="180.00" type="DEFAULT_VEHTYPE" speed="0.00" pos="5.10" lane="6/7to6/6_0" slope="0.00"/>
        <vehicle id="t127" x="598.35" y="890.15" angle="180.00" type="DEFAULT_VEHTYPE" speed="0.00" pos="5.10" lane="6/9to6/8_0" slope="0.00"/>
        <vehicle id="t129" x="190.15" y="601.65" angle="270.00" type="DEFAULT_VEHTYPE" speed="0.00" pos="5.10" lane="2/6to1/6_0" slope="0.00"/>
        <vehicle id="t130" x="509.85" y="198.35" angle="90.00" type="DEFAULT_VEHTYPE" speed="0.00" pos="5.10" lane="5/2to6/2_0" slope="0.00"/>
        <vehicle id="t132" x="790.15" y="201.65" angle="270.00" type="DEFAULT_VEHTYPE" speed="0.00" pos="5.10" lane="8/2to7/2_0" slope="0.00"/>
        <vehicle id="t133" x="390.15" y="601.65" angle="270.00" type="DEFAULT_VEHTYPE" speed="0.00" pos="5.10" lane="4/6to3/6_0" slope="0.00"/>
        <vehicle id="t134" x="301.65" y="209.85" angle="0.00" type="DEFAULT_VEHTYPE" speed="0.00" pos="5.10" lane="3/2to3/3_0" slope="0.00"/>
        <vehicle id="t135" x="590.15" y="101.65" angle="270.00" type="DEFAULT_VEHTYPE" speed="0.00" pos="5.10" lane="6/1to5/1_0" slope="0.00"/>
        <vehicle id="t137" x="698.35" y="690.15" angle="180.00" type="DEFAULT_VEHTYPE" speed="0.00" pos="5.10" lane="7/7to7/6_0" slope="0.00"/>
        <vehicle id="t139" x="801.65" y="309.85" angle="0.00" type="DEFAULT_VEHTYPE" speed="0.00" pos="5.10" lane="8/3to8/4_0" slope="0.00"/>
        <vehicle id="t14" x="709.85" y="498.35" angle="90.00" type="DEFAULT_VEHTYPE" speed="0.00" pos="5.10" lane="7/5to8/5_0" slope="0.00"/>
        <vehicle id="t140" x="290.15" y="701.65" angle="270.00" type="DEFAULT_VEHTYPE" speed="0.00" pos="5.10" lane="3/7to2/7_0" slope="0.00"/>
        <vehicle id="t141" x="901.65" y="8.35" angle="0.00" type="DEFAULT_VEHTYPE" speed="0.00" pos="5.10" lane="9/0to9/1_0" slope="0.00"/>
        <vehicle id="t142" x="290.15" y="401.65" angle="270.00" type="DEFAULT_VEHTYPE" speed="0.00" pos="5.10" lane="3/4to2/4_0" slope="0.00"/>
        <vehicle id="t143" x="701.65" y="309.85" angle="0.00" type="DEFAULT_VEHTYPE" speed="0.00" pos="5.10" lane="7/3to7/4_0" slope="0.00"/>
        <vehicle id="t146" x="298.35" y="90.15" angle="180.00" type="DEFAULT_VEHTYPE" speed="0.00" pos="5.10" lane="3/1to3/0_0" slope="0.00"/>
        <vehicle id="t148" x="701.65" y="409.85" angle="0.00" type="DEFAULT_VEHTYPE" speed="0.00" pos="5.10" lane="7/4to7/5_0" slope="0.00"/>
        <vehicle id="t149" x="401.65" y="209.85" angle="0.00" type="DEFAULT_VEHTYPE" speed="0.00" pos="5.10" lane="4/2to4/3_0" slope="0.00"/>
        <vehicle id="t15" x="201.65" y="309.85" angle="0.00" type="DEFAULT_VEHTYPE" speed="0.00" pos="5.10" lane="2/3to2/4_0" slope="0.00"/>
        <vehicle id="t150" x="409.85" y="598.35" angle="90.00" type="DEFAULT_VEHTYPE" speed="0.00" pos="5.10" lane="4/6to5/6_0" slope="0.00"/>
        <vehicle id="t151" x="601.65" y="509.85" angle="0.00" type="DEFAULT_VEHTYPE" speed="0.00" pos="5.10" lane="6/5to6/6_0" slope="0.00"/>
        <vehicle id="t152" x="709.85" y="-1.65" angle="90.00" type="DEFAULT_VEHTYPE" speed="0.00" pos="5.10" lane="7/0to8/0_0" slope="0.00"/>
        <vehicle id="t153" x="201.65" y="9.85" angle="0.00" type="DEFAULT_VEHTYPE" speed="0.00" pos="5.10" lane="2/0to2/1_0" slope="0.00"/>
        <vehicle id="t154" x="698.35" y="190.15" angle="180.00" type="DEFAULT_VEHTYPE" speed="0.00" pos="5.10" lane="7/2to7/1_0" slope="0.00"/>
        <vehicle id="t155" x="201.65" y="609.85" angle="0.00" type="DEFAULT_VEHTYPE" speed="0.00" pos="5.10" lane="2/6to2/7_0" slope="0.00"/>
        <vehicle id="t156" x="690.15" y="601.65" angle="270.00" type="DEFAULT_VEHTYPE" speed="0.00" pos="5.10" lane="7/6to6/6_0" slope="0.00"/>
        <vehicle id="t157" x="1.65" y="8.35" angle="0.00" type="DEFAULT_VEHTYPE" speed="0.00" pos="5.10" lane="0/0to0/1_0" slope="0.00"/>
        <vehicle id="t158" x="1.65" y="109.85" angle="0.00" type="DEFAULT_VEHTYPE" speed="0.00" pos="5.10" lane="0/1to0/2_0" slope="0.00"/>
        <vehicle id="t159" x="901.65" y="609.85" angle="0.00" type="DEFAULT_VEHTYPE" speed="0.00" pos="5.10" lane="9/6to9/7_0" slope="0.00"/>
        <vehicle id="t16" x="190.15" y="301.65" angle="270.00" type="DEFAULT_VEHTYPE" speed="0.00" pos="5.10" lane="2/3to1/3_0" slope="0.00"/>
        <vehicle id="t160" x="309.85" y="898.35" angle="90.00" type="DEFAULT_VEHTYPE" speed="0.00" pos="5.10" lane="3/9to4/9_0" slope="0.00"/>
        <vehicle id="t162" x="301.65" y="609.85" angle="0.00" type="DEFAULT_VEHTYPE" speed="0.00" pos="5.10" lane="3/6to3/7_0" slope="0.00"/>
        <vehicle id="t163" x="290.15" y="201.65" angle="270.00" type="DEFAULT_VEHTYPE" speed="0.00" pos="5.10" lane="3/2to2/2_0" slope="0.00"/>
        <vehicle id="t164" x="-1.65" y="490.15" angle="180.00" type="DEFAULT_VEHTYPE" speed="0.00" pos="5.10" lane="0/5to0/4_0" slope="0.00"/>
        <vehicle id="t165" x="798.35" y="690.15" angle="180.00" type="DEFAULT_VEHTYPE" speed="0.00" pos="5.10" lane="8/7to8/6_0" slope="0.00"/>
        <vehicle id="t167" x="898.35" y="590.15" angle="180.00" type="DEFAULT_VEHTYPE" speed="0.00" pos="5.10" lane="9/6to9/5_0" slope="0.00"/>
        <vehicle id="t168" x="698.35" y="390.15" angle="180.00" type="DEFAULT_VEHTYPE" speed="0.00" pos="5.10" lane="7/4to7/3_0" slope="0.00"/>
        <vehicle id="t169" x="598.35" y="90.15" angle="180.00" type="DEFAULT_VEHTYPE" speed="0.00" pos="5.10" lane="6/1to6/0_0" slope="0.00"/>
        <vehicle id="t17" x="690.15" y="501.65" angle="270.00" type="DEFAULT_VEHTYPE" speed="0.00" pos="5.10" lane="7/5to6/5_0" slope="0.00"/>
        <vehicle id="t170" x="98.35" y="590.15" angle="180.00" type="DEFAULT_VEHTYPE" speed="0.00" pos="5.10" lane="1/6to1/5_0" slope="0.00"/>
        <vehicle id="t171" x="98.35" y="890.15" angle="180.00" type="DEFAULT_VEHTYPE" speed="0.00" pos="5.10" lane="1/9to1/8_0" slope="0.00"/>
        <vehicle id="t172" x="890.15" y="401.65" angle="270.00" type="DEFAULT_VEHTYPE" speed="0.00" pos="5.10" lane="9/4to8/4_0" slope="0.00"/>
        <vehicle id="t173" x="409.85" y="398.35" angle="90.00" type="DEFAULT_VEHTYPE" speed="0.00" pos="5.10" lane="4/4to5/4_0" slope="0.00"/>
        <vehicle id="t174" x="901.65" y="309.85" angle="0.00" type="DEFAULT_VEHTYPE" speed="0.00" pos="5.10" lane="9/3to9/4_0" slope="0.00"/>
        <vehicle id="t176" x="709.85" y="198.35" angle="90.00" type="DEFAULT_VEHTYPE" speed="0.00" pos="5.10" lane="7/2to8/2_0" slope="0.00"/>
        <vehicle id="t178" x="790.15" y="401.65" angle="270.00" type="DEFAULT_VEHTYPE" speed="0.00" pos="5.10" lane="8/4to7/4_0" slope="0.00"/>
        <vehicle id="t18" x="509.85" y="498.35" angle="90.00" type="DEFAULT_VEHTYPE" speed="0.00" pos="5.10" lane="5/5to6/5_0" slope="0.00"/>
        <vehicle id="t180" x="809.85" y="698.35" angle="90.00" type="DEFAULT_VEHTYPE" speed="0.00" pos="5.10" lane="8/7to9/7_0" slope="0.00"/>
        <vehicle id="t185" x="401.65" y="409.85" angle="0.00" type="DEFAULT_VEHTYPE" speed="0.00" pos="5.10" lane="4/4to4/5_0" slope="0.00"/>
        <vehicle id="t187" x="809.85" y="98.35" angle="90.00" type="DEFAULT_VEHTYPE" speed="0.00" pos="5.10" lane="8/1to9/1_0" slope="0.00"/>
        <vehicle id="t19" x="109.85" y="-1.65" angle="90.00" type="DEFAULT_VEHTYPE" speed="0.00" pos="5.10" lane="1/0to2/0_0" slope="0.00"/>
        <vehicle id="t192" x="390.15" y="301.65" angle="270.00" type="DEFAULT_VEHTYPE" speed="0.00" pos="5.10" lane="4/3to3/3_0" slope="0.00"/>
        <vehicle id="t195" x="898.35" y="390.15" angle="180.00" type="DEFAULT_VEHTYPE" speed="0.00" pos="5.10" lane="9/4to9/3_0" slope="0.00"/>
        <vehicle id="t197" x="101.65" y="309.85" angle="0.00" type="DEFAULT_VEHTYPE" speed="0.00" pos="5.10" lane="1/3to1/4_0" slope="0.00"/>
        <vehicle id="t198" x="701.65" y="509.85" angle="0.00" type="DEFAULT_VEHTYPE" speed="0.00" pos="5.10" lane="7/5to7/6_0" slope="0.00"/>
        <vehicle id="t199" x="801.65" y="409.85" angle="0.00" type="DEFAULT_VEHTYPE" speed="0.00" pos="5.10" lane="8/4to8/5_0" slope="0.00"/>
        <vehicle id="t2" x="409.85" y="298.35" angle="90.00" type="DEFAULT_VEHTYPE" speed="0.00" pos="5.10" lane="4/3to5/3_0" slope="0.00"/>
        <vehicle id="t20" x="190.15" y="201.65" angle="270.00" type="DEFAULT_VEHTYPE" speed="0.00" pos="5.10" lane="2/2to1/2_0" slope="0.00"/>
        <vehicle id="t21" x="498.35" y="390.15" angle="180.00" type="DEFAULT_VEHTYPE" speed="0.00" pos="5.10" lane="5/4to5/3_0" slope="0.00"/>
        <vehicle id="t22" x="109.85" y="298.35" angle="90.00" type="DEFAULT_VEHTYPE" speed="0.00" pos="5.10" lane="1/3to2/3_0" slope="0.00"/>
        <vehicle id="t23" x="801.65" y="609.85" angle="0.00" type="DEFAULT_VEHTYPE" speed="0.00" pos="5.10" lane="8/6to8/7_0" slope="0.00"/>
        <vehicle id="t24" x="790.15" y="301.65" angle="270.00" type="DEFAULT_VEHTYPE" speed="0.00" pos="5.10" lane="8/3to7/3_0" slope="0.00"/>
        <vehicle id="t25" x="101.65" y="609.85" angle="0.00" type="DEFAULT_VEHTYPE" speed="0.00" pos="5.10" lane="1/6to1/7_0" slope="0.00"/>
        <vehicle id="t26" x="601.65" y="709.85" angle="0.00" type="DEFAULT_VEHTYPE" speed="0.00" pos="5.10" lane="6/7to6/8_0" slope="0.00"/>
        <vehicle id="t27" x="409.85" y="898.35" angle="90.00" type="DEFAULT_VEHTYPE" speed="0.00" pos="5.10" lane="4/9to5/9_0" slope="0.00"/>
        <vehicle id="t28" x="501.65" y="509.85" angle="0.00" type="DEFAULT_VEHTYPE" speed="0.00" pos="5.10" lane="5/5to5/6_0" slope="0.00"/>
        <vehicle id="t29" x="490.15" y="701.65" angle="270.00" type="DEFAULT_VEHTYPE" speed="0.00" pos="5.10" lane="5/7to4/7_0" slope="0.00"/>
        <vehicle id="t3" x="209.85" y="698.35" angle="90.00" type="DEFAULT_VEHTYPE" speed="0.00" pos="5.10" lane="2/7to3/7_0" slope="0.00"/>
        <vehicle id="t30" x="90.15" y="701.65" angle="270.00" type="DEFAULT_VEHTYPE" speed="0.00" pos="5.10" lane="1/7to0/7_0" slope="0.00"/>
        <vehicle id="t31" x="98.35" y="90.15" angle="180.00" type="DEFAULT_VEHTYPE" speed="0.00" pos="5.10" lane="1/1to1/0_0" slope="0.00"/>
        <vehicle id="t32" x="709.85" y="898.35" angle="90.00" type="DEFAULT_VEHTYPE" speed="0.00" pos="5.10" lane="7/9to8/9_0" slope="0.00"/>
        <vehicle id="t33" x="90.15" y="301.65" angle="270.00" type="DEFAULT_VEHTYPE" speed="0.00" pos="5.10" lane="1/3to0/3_0" slope="0.00"/>
        <vehicle id="t34" x="309.85" y="398.35" angle="90.00" type="DEFAULT_VEHTYPE" speed="0.00" pos="5.10" lane="3/4to4/4_0" slope="0.00"/>
        <vehicle id="t35" x="701.65" y="9.85" angle="0.00" type="DEFAULT_VEHTYPE" speed="0.00" pos="5.10" lane="7/0to7/1_0" slope="0.00"/>
        <vehicle id="t36" x="101.65" y="9.85" angle="0.00" type="DEFAULT_VEHTYPE" speed="0.00" pos="5.10" lane="1/0to1/1_0" slope="0.00"/>
        <vehicle id="t37" x="590.15" y="901.65" angle="270.00" type="DEFAULT_VEHTYPE" speed="0.00" pos="5.10" lane="6/9to5/9_0" slope="0.00"/>
        <vehicle id="t38" x="798.35" y="890.15" angle="180.00" type="DEFAULT_VEHTYPE" speed="0.00" pos="5.10" lane="8/9to8/8_0" slope="0.00"/>
        <vehicle id="t39" x="98.35" y="190.15" angle="180.00" type="DEFAULT_VEHTYPE" speed="0.00" pos="5.10" lane="1/2to1/1_0" slope="0.00"/>
        <vehicle id="t4" x="409.85" y="98.35" angle="90.00" type="DEFAULT_VEHTYPE" speed="0.00" pos="5.10" lane="4/1to5/1_0" slope="0.00"/>
        <vehicle id="t40" x="198.35" y="890.15" angle="180.00" type="DEFAULT_VEHTYPE" speed="0.00" pos="5.10" lane="2/9to2/8_0" slope="0.00"/>
        <vehicle id="t41" x="501.65" y="809.85" angle="0.00" type="DEFAULT_VEHTYPE" speed="0.00" pos="5.10" lane="5/8to5/9_0" slope="0.00"/>
        <vehicle id="t42" x="101.65" y="509.85" angle="0.00" type="DEFAULT_VEHTYPE" speed="0.00" pos="5.10" lane="1/5to1/6_0" slope="0.00"/>
        <vehicle id="t43" x="9.85" y="98.35" angle="90.00" type="DEFAULT_VEHTYPE" speed="0.00" pos="5.10" lane="0/1to1/1_0" slope="0.00"/>
        <vehicle id="t44" x="790.15" y="1.65" angle="270.00" type="DEFAULT_VEHTYPE" speed="0.00" pos="5.10" lane="8/0to7/0_0" slope="0.00"/>
        <vehicle id="t46" x="298.35" y="290.15" angle="180.00" type="DEFAULT_VEHTYPE" speed="0.00" pos="5.10" lane="3/3to3/2_0" slope="0.00"/>
        <vehicle id="t47" x="701.65" y="209.85" angle="0.00" type="DEFAULT_VEHTYPE" speed="0.00" pos="5.10" lane="7/2to7/3_0" slope="0.00"/>
        <vehicle id="t49" x="601.65" y="109.85" angle="0.00" type="DEFAULT_VEHTYPE" speed="0.00" pos="5.10" lane="6/1to6/2_0" slope="0.00"/>
        <vehicle id="t5" x="809.85" y="898.35" angle="90.00" type="DEFAULT_VEHTYPE" speed="0.00" pos="5.10" lane="8/9to9/9_0" slope="0.00"/>
        <vehicle id="t51" x="290.15" y="801.65" angle="270.00" type="DEFAULT_VEHTYPE" speed="0.00" pos="5.10" lane="3/8to2/8_0" slope="0.00"/>
        <vehicle id="t52" x="690.15" y="201.65" angle="270.00" type="DEFAULT_VEHTYPE" speed="0.00" pos="5.10" lane="7/2to6/2_0" slope="0.00"/>
        <vehicle id="t53" x="9.85" y="498.35" angle="90.00" type="DEFAULT_VEHTYPE" speed="0.00" pos="5.10" lane="0/5to1/5_0" slope="0.00"/>
        <vehicle id="t54" x="101.65" y="409.85" angle="0.00" type="DEFAULT_VEHTYPE" speed="0.00" pos="5.10" lane="1/4to1/5_0" slope="0.00"/>
        <vehicle id="t55" x="-1.65" y="590.15" angle="180.00" type="DEFAULT_VEHTYPE" speed="0.00" pos="5.10" lane="0/6to0/5_0" slope="0.00"/>
        <vehicle id="t56" x="9.85" y="198.35" angle="90.00" type="DEFAULT_VEHTYPE" speed="0.00" pos="5.10" lane="0/2to1/2_0" slope="0.00"/>
        <vehicle id="t58" x="590.15" y="401.65" angle="270.00" type="DEFAULT_VEHTYPE" speed="0.00" pos="5.10" lane="6/4to5/4_0" slope="0.00"/>
        <vehicle id="t59" x="109.85" y="798.35" angle="90.00" type="DEFAULT_VEHTYPE" speed="0.00" pos="5.10" lane="1/8to2/8_0" slope="0.00"/>
        <vehicle id="t6" x="390.15" y="801.65" angle="270.00" type="DEFAULT_VEHTYPE" speed="0.00" pos="5.10" lane="4/8to3/8_0" slope="0.00"/>
        <vehicle id="t60" x="90.15" y="601.65" angle="270.00" type="DEFAULT_VEHTYPE" speed="0.00" pos="5.10" lane="1/6to0/6_0" slope="0.00"/>
        <vehicle id="t61" x="101.65" y="709.85" angle="0.00" type="DEFAULT_VEHTYPE" speed="0.00" pos="5.10" lane="1/7to1/8_0" slope="0.00"/>
        <vehicle id="t62" x="-1.65" y="290.15" angle="180.00" type="DEFAULT_VEHTYPE" speed="0.00" pos="5.10" lane="0/3to0/2_0" slope="0.00"/>
        <vehicle id="t63" x="798.35" y="490.15" angle="180.00" type="DEFAULT_VEHTYPE" speed="0.00" pos="5.10" lane="8/5to8/4_0" slope="0.00"/>
        <vehicle id="t65" x="609.85" y="598.35" angle="90.00" type="DEFAULT_VEHTYPE" speed="0.00" pos="5.10" lane="6/6to7/6_0" slope="0.00"/>
        <vehicle id="t66" x="598.35" y="490.15" angle="180.00" type="DEFAULT_VEHTYPE" speed="0.00" pos="5.10" lane="6/5to6/4_0" slope="0.00"/>
        <vehicle id="t67" x="301.65" y="709.85" angle="0.00" type="DEFAULT_VEHTYPE" speed="0.00" pos="5.10" lane="3/7to3/8_0" slope="0.00"/>
        <vehicle id="t68" x="890.15" y="701.65" angle="270.00" type="DEFAULT_VEHTYPE" speed="0.00" pos="5.10" lane="9/7to8/7_0" slope="0.00"/>
        <vehicle id="t7" x="109.85" y="398.35" angle="90.00" type="DEFAULT_VEHTYPE" speed="0.00" pos="5.10" lane="1/4to2/4_0" slope="0.00"/>
        <vehicle id="t70" x="198.35" y="490.15" angle="180.00" type="DEFAULT_VEHTYPE" speed="0.00" pos="5.10" lane="2/5to2/4_0" slope="0.00"/>
        <vehicle id="t71" x="90.15" y="201.65" angle="270.00" type="DEFAULT_VEHTYPE" speed="0.00" pos="5.10" lane="1/2to0/2_0" slope="0.00"/>
        <vehicle id="t72" x="309.85" y="98.35" angle="90.00" type="DEFAULT_VEHTYPE" speed="0.00" pos="5.10" lane="3/1to4/1_0" slope="0.00"/>
        <vehicle id="t74" x="509.85" y="898.35" angle="90.00" type="DEFAULT_VEHTYPE" speed="0.00" pos="5.10" lane="5/9to6/9_0" slope="0.00"/>
        <vehicle id="t75" x="201.65" y="809.85" angle="0.00" type="DEFAULT_VEHTYPE" speed="0.00" pos="5.10" lane="2/8to2/9_0" slope="0.00"/>
        <vehicle id="t77" x="898.35" y="490.15" angle="180.00" type="DEFAULT_VEHTYPE" speed="0.00" pos="5.10" lane="9/5to9/4_0" slope="0.00"/>
        <vehicle id="t79" x="609.85" y="198.35" angle="90.00" type="DEFAULT_VEHTYPE" speed="0.00" pos="5.10" lane="6/2to7/2_0" slope="0.00"/>
        <vehicle id="t8" x="298.35" y="890.15" angle="180.00" type="DEFAULT_VEHTYPE" speed="0.00" pos="5.10" lane="3/9to3/8_0" slope="0.00"/>
        <vehicle id="t80" x="898.35" y="891.65" angle="180.00" type="DEFAULT_VEHTYPE" speed="0.00" pos="5.10" lane="9/9to9/8_0" slope="0.00"/>
        <vehicle id="t81" x="209.85" y="98.35" angle="90.00" type="DEFAULT_VEHTYPE" speed="0.00" pos="5.10" lane="2/1to3/1_0" slope="0.00"/>
        <vehicle id="t83" x="809.85" y="498.35" angle="90.00" type="DEFAULT_VEHTYPE" speed="0.00" pos="5.10" lane="8/5to9/5_0" slope="0.00"/>
        <vehicle id="t85" x="390.15" y="401.65" angle="270.00" type="DEFAULT_VEHTYPE" speed="0.00" pos="5.10" lane="4/4to3/4_0" slope="0.00"/>
        <vehicle id="t86" x="709.85" y="398.35" angle="90.00" type="DEFAULT_VEHTYPE" speed="0.00" pos="5.10" lane="7/4to8/4_0" slope="0.00"/>
        <vehicle id="t87" x="501.65" y="409.85" angle="0.00" type="DEFAULT_VEHTYPE" speed="0.00" pos="5.10" lane="5/4to5/5_0" slope="0.00"/>
        <vehicle id="t89" x="390.15" y="501.65" angle="270.00" type="DEFAULT_VEHTYPE" speed="0.00" pos="5.10" lane="4/5to3/5_0" slope="0.00"/>
        <vehicle id="t9" x="901.65" y="509.85" angle="0.00" type="DEFAULT_VEHTYPE" speed="0.00" pos="5.10" lane="9/5to9/6_0" slope="0.00"/>
        <vehicle id="t90" x="390.15" y="701.65" angle="270.00" type="DEFAULT_VEHTYPE" speed="0.00" pos="5.10" lane="4/7to3/7_0" slope="0.00"/>
        <vehicle id="t91" x="90.15" y="1.65" angle="270.00" type="DEFAULT_VEHTYPE" speed="0.00" pos="5.10" lane="1/0to0/0_0" slope="0.00"/>
        <vehicle id="t93" x="609.85" y="98.35" angle="90.00" type="DEFAULT_VEHTYPE" speed="0.00" pos="5.10" lane="6/1to7/1_0" slope="0.00"/>
        <vehicle id="t94" x="798.35" y="90.15" angle="180.00" type="DEFAULT_VEHTYPE" speed="0.00" pos="5.10" lane="8/1to8/0_0" slope="0.00"/>
        <vehicle id="t95" x="409.85" y="-1.65" angle="90.00" type="DEFAULT_VEHTYPE" speed="0.00" pos="5.10" lane="4/0to5/0_0" slope="0.00"/>
        <vehicle id="t96" x="198.35" y="190.15" angle="180.00" type="DEFAULT_VEHTYPE" speed="0.00" pos="5.10" lane="2/2to2/1_0" slope="0.00"/>
        <vehicle id="t98" x="490.15" y="101.65" angle="270.00" type="DEFAULT_VEHTYPE" speed="0.00" pos="5.10" lane="5/1to4/1_0" slope="0.00"/>
        <vehicle id="t99" x="490.15" y="801.65" angle="270.00" type="DEFAULT_VEHTYPE" speed="0.00" pos="5.10" lane="5/8to4/8_0" slope="0.00"/>
    </timestep>
    <timestep time="1.00">
        <vehicle id="t0" x="101.65" y="811.58" angle="0.00" type="DEFAULT_VEHTYPE" speed="1.73" pos="6.83" lane="1/8to1/9_0" slope="0.00"/>
        <vehicle id="t1" x="401.65" y="311.29" angle="0.00" type="DEFAULT_VEHTYPE" speed="1.44" pos="6.54" lane="4/3to4/4_0" slope="0.00"/>
        <vehicle id="t10" x="898.35" y="688.00" angle="180.00" type="DEFAULT_VEHTYPE" speed="2.15" pos="7.25" lane="9/7to9/6_0" slope="0.00"/>
        <vehicle id="t101" x="588.40" y="1.65" angle="270.00" type="DEFAULT_VEHTYPE" speed="1.75" pos="6.85" lane="6/0to5/0_0" slope="0.00"/>
        <vehicle id="t102" x="701.65" y="712.28" angle="0.00" type="DEFAULT_VEHTYPE" speed="2.43" pos="7.53" lane="7/7to7/8_0" slope="0.00"/>
        <vehicle id="t103" x="88.79" y="401.65" angle="270.00" type="DEFAULT_VEHTYPE" speed="1.36" pos="6.46" lane="1/4to0/4_0" slope="0.00"/>
        <vehicle id="t104" x="698.35" y="588.48" angle="180.00" type="DEFAULT_VEHTYPE" speed="1.67" pos="6.77" lane="7/6to7/5_0" slope="0.00"/>
        <vehicle id="t105" x="612.03" y="698.35" angle="90.00" type="DEFAULT_VEHTYPE" speed="2.18" pos="7.28" lane="6/7to7/7_0" slope="0.00"/>
        <vehicle id="t106" x="311.23" y="598.35" angle="90.00" type="DEFAULT_VEHTYPE" speed="1.38" pos="6.48" lane="3/6to4/6_0" slope="0.00"/>
        <vehicle id="t108" x="211.62" y="298.35" angle="90.00" type="DEFAULT_VEHTYPE" speed="1.77" pos="6.87" lane="2/3to3/3_0" slope="0.00"/>
        <vehicle id="t11" x="498.35" y="88.64" angle="180.00" type="DEFAULT_VEHTYPE" speed="1.51" pos="6.61" lane="5/1to5/0_0" slope="0.00"/>
        <vehicle id="t110" x="-1.65" y="387.60" angle="180.00" type="DEFAULT_VEHTYPE" speed="2.55" pos="7.65" lane="0/4to0/3_0" slope="0.00"/>
        <vehicle id="t111" x="387.85" y="101.65" angle="270.00" type="DEFAULT_VEHTYPE" speed="2.30" pos="7.40" lane="4/1to3/1_0" slope="0.00"/>
        <vehicle id="t114" x="801.65" y="111.36" angle="0.00" type="DEFAULT_VEHTYPE" speed="1.51" pos="6.61" lane="8/1to8/2_0" slope="0.00"/>
        <vehicle id="t115" x="787.71" y="501.65" angle="270.00" type="DEFAULT_VEHTYPE" speed="2.44" pos="7.54" lane="8/5to7/5_0" slope="0.00"/>
        <vehicle id="t116" x="601.65" y="211.49" angle="0.00" type="DEFAULT_VEHTYPE" speed="1.64" pos="6.74" lane="6/2to6/3_0" slope="0.00"/>
        <vehicle id="t117" x="1.65" y="811.29" angle="0.00" type="DEFAULT_VEHTYPE" speed="1.44" pos="6.54" lane="0/8to0/9_0" slope="0.00"/>
        <vehicle id="t12" x="798.35" y="388.51" angle="180.00" type="DEFAULT_VEHTYPE" speed="1.64" pos="6.74" lane="8/4to8/3_0" slope="0.00"/>
        <vehicle id="t122" x="412.21" y="698.35" angle="90.00" type="DEFAULT_VEHTYPE" speed="2.36" pos="7.46" lane="4/7to5/7_0" slope="0.00"/>
        <vehicle id="t123" x="712.19" y="698.35" angle="90.00" type="DEFAULT_VEHTYPE" speed="2.34" pos="7.44" lane="7/7to8/7_0" slope="0.00"/>
        <vehicle id="t124" x="501.65" y="11.51" angle="0.00" type="DEFAULT_VEHTYPE" speed="1.66" pos="6.76" lane="5/0to5/1_0" slope="0.00"/>
        <vehicle id="t125" x="788.82" y="701.65" angle="270.00" type="DEFAULT_VEHTYPE" speed="1.33" pos="6.43" lane="8/7to7/7_0" slope="0.00"/>
        <vehicle id="t126" x="598.35" y="688.52" angle="180.00" type="DEFAULT_VEHTYPE" speed="1.63" pos="6.73" lane="6/7to6/6_0" slope="0.00"/>
        <vehicle id="t127" x="598.35" y="887.72" angle="180.00" type="DEFAULT_VEHTYPE" speed="2.43" pos="7.53" lane="6/9to6/8_0" slope="0.00"/>
        <vehicle id="t129" x="187.55" y="601.65" angle="270.00" type="DEFAULT_VEHTYPE" speed="2.60" pos="7.70" lane="2/6to1/6_0" slope="0.00"/>
        <vehicle id="t130" x="511.79" y="198.35" angle="90.00" type="DEFAULT_VEHTYPE" speed="1.94" pos="7.04" lane="5/2to6/2_0" slope="0.00"/>
        <vehicle id="t132" x="788.81" y="201.65" angle="270.00" type="DEFAULT_VEHTYPE" speed="1.34" pos="6.44" lane="8/2to7/2_0" slope="0.00"/>
        <vehicle id="t133" x="388.44" y="601.65" angle="270.00" type="DEFAULT_VEHTYPE" speed="1.71" pos="6.81" lane="4/6to3/6_0" slope="0.00"/>
        <vehicle id="t134" x="301.65" y="211.82" angle="0.00" type="DEFAULT_VEHTYPE" speed="1.97" pos="7.07" lane="3/2to3/3_0" slope="0.00"/>
        <vehicle id="t135" x="587.98" y="101.65" angle="270.00" type="DEFAULT_VEHTYPE" speed="2.17" pos="7.27" lane="6/1to5/1_0" slope="0.00"/>
        <vehicle id="t137" x="698.35" y="687.59" angle="180.00" type="DEFAULT_VEHTYPE" speed="2.56" pos="7.66" lane="7/7to7/6_0" slope="0.00"/>
        <vehicle id="t139" x="801.65" y="311.81" angle="0.00" type="DEFAULT_VEHTYPE" speed="1.96" pos="7.06" lane="8/3to8/4_0" slope="0.00"/>
        <vehicle id="t14" x="712.07" y="498.35" angle="90.00" type="DEFAULT_VEHTYPE" speed="2.22" pos="7.32" lane="7/5to8/5_0" slope="0.00"/>
        <vehicle id="t140" x="288.16" y="701.65" angle="270.00" type="DEFAULT_VEHTYPE" speed="1.99" pos="7.09" lane="3/7to2/7_0" slope="0.00"/>
        <vehicle id="t141" x="901.65" y="9.82" angle="0.00" type="DEFAULT_VEHTYPE" speed="1.47" pos="6.57" lane="9/0to9/1_0" slope="0.00"/>
        <vehicle id="t142" x="287.57" y="401.65" angle="270.00" type="DEFAULT_VEHTYPE" speed="2.58" pos="7.68" lane="3/4to2/4_0" slope="0.00"/>
        <vehicle id="t143" x="701.65" y="311.70" angle="0.00" type="DEFAULT_VEHTYPE" speed="1.85" pos="6.95" lane="7/3to7/4_0" slope="0.00"/>
        <vehicle id="t146" x="298.35" y="88.48" angle="180.00" type="DEFAULT_VEHTYPE" speed="1.67" pos="6.77" lane="3/1to3/0_0" slope="0.00"/>
        <vehicle id="t148" x="701.65" y="412.25" angle="0.00" type="DEFAULT_VEHTYPE" speed="2.40" pos="7.50" lane="7/4to7/5_0" slope="0.00"/>
        <vehicle id="t149" x="401.65" y="212.10" angle="0.00" type="DEFAULT_VEHTYPE" speed="2.25" pos="7.35" lane="4/2to4/3_0" slope="0.00"/>
        <vehicle id="t15" x="201.65" y="311.74" angle="0.00" type="DEFAULT_VEHTYPE" speed="1.89" pos="6.99" lane="2/3to2/4_0" slope="0.00"/>
        <vehicle id="t150" x="412.05" y="598.35" angle="90.00" type="DEFAULT_VEHTYPE" speed="2.20" pos="7.30" lane="4/6to5/6_0" slope="0.00"/>
        <vehicle id="t151" x="601.65" y="511.48" angle="0.00" type="DEFAULT_VEHTYPE" speed="1.63" pos="6.73" lane="6/5to6/6_0" slope="0.00"/>
        <vehicle id="t152" x="711.18" y="-1.65" angle="90.00" type="DEFAULT_VEHTYPE" speed="1.33" pos="6.43" lane="7/0to8/0_0" slope="0.00"/>
        <vehicle id="t153" x="201.65" y="12.38" angle="0.00" type="DEFAULT_VEHTYPE" speed="2.53" pos="7.63" lane="2/0to2/1_0" slope="0.00"/>
        <vehicle id="t154" x="698.35" y="187.60" angle="180.00" type="DEFAULT_VEHTYPE" speed="2.55" pos="7.65" lane="7/2to7/1_0" slope="0.00"/>
        <vehicle id="t155" x="201.65" y="612.19" angle="0.00" type="DEFAULT_VEHTYPE" speed="2.34" pos="7.44" lane="2/6to2/7_0" slope="0.00"/>
        <vehicle id="t156" x="687.67" y="601.65" angle="270.00" type="DEFAULT_VEHTYPE" speed="2.48" pos="7.58" lane="7/6to6/6_0" slope="0.00"/>
        <vehicle id="t157" x="1.65" y="10.27" angle="0.00" type="DEFAULT_VEHTYPE" speed="1.92" pos="7.02" lane="0/0to0/1_0" slope="0.00"/>
        <vehicle id="t158" x="1.65" y="112.40" angle="0.00" type="DEFAULT_VEHTYPE" speed="2.55" pos="7.65" lane="0/1to0/2_0" slope="0.00"/>
        <vehicle id="t159" x="901.65" y="612.40" angle="0.00" type="DEFAULT_VEHTYPE" speed="2.55" pos="7.65" lane="9/6to9/7_0" slope="0.00"/>
        <vehicle id="t16" x="188.48" y="301.65" angle="270.00" type="DEFAULT_VEHTYPE" speed="1.67" pos="6.77" lane="2/3to1/3_0" slope="0.00"/>