<?xml version="1.0" encoding="UTF-8"?>

<!-- generated on Wed Feb 28 18:19:09 2024 by Eclipse SUMO GUI Version 1.4.0
<configuration xmlns:xsi="http://www.w3.org/2001/XMLSchema-instance" xsi:noNamespaceSchemaLocation="http://sumo.dlr.de/xsd/sumoConfiguration.xsd">

    <input>
        <net-file value="simple_network.net.xml"/>
        <route-files value="simple_50_clients.rou.xml"/>
    </input>

    <output>
        <fcd-output value="simple_50_clients.fcd.xml"/>
    </output>

    <time>
        <begin value="0"/>
        <end value="200"/>
    </time>

    <processing>
        <time-to-teleport value="-1"/>
    </processing>

</configuration>
-->

<fcd-export xmlns:xsi="http://www.w3.org/2001/XMLSchema-instance" xsi:noNamespaceSchemaLocation="http://sumo.dlr.de/xsd/fcd_file.xsd">
    <timestep time="0.00">
        <vehicle id="t0" x="90.15" y="401.65" angle="270.00" type="DEFAULT_VEHTYPE" speed="0.00" pos="5.10" lane="1/4to0/4_0" slope="0.00"/>
        <vehicle id="t1" x="409.85" y="898.35" angle="90.00" type="DEFAULT_VEHTYPE" speed="0.00" pos="5.10" lane="4/9to5/9_0" slope="0.00"/>
        <vehicle id="t10" x="798.35" y="690.15" angle="180.00" type="DEFAULT_VEHTYPE" speed="0.00" pos="5.10" lane="8/7to8/6_0" slope="0.00"/>
        <vehicle id="t11" x="190.15" y="201.65" angle="270.00" type="DEFAULT_VEHTYPE" speed="0.00" pos="5.10" lane="2/2to1/2_0" slope="0.00"/>
        <vehicle id="t12" x="298.35" y="390.15" angle="180.00" type="DEFAULT_VEHTYPE" speed="0.00" pos="5.10" lane="3/4to3/3_0" slope="0.00"/>
        <vehicle id="t13" x="198.35" y="490.15" angle="180.00" type="DEFAULT_VEHTYPE" speed="0.00" pos="5.10" lane="2/5to2/4_0" slope="0.00"/>
        <vehicle id="t14" x="701.65" y="209.85" angle="0.00" type="DEFAULT_VEHTYPE" speed="0.00" pos="5.10" lane="7/2to7/3_0" slope="0.00"/>
        <vehicle id="t15" x="590.15" y="1.65" angle="270.00" type="DEFAULT_VEHTYPE" speed="0.00" pos="5.10" lane="6/0to5/0_0" slope="0.00"/>
        <vehicle id="t16" x="98.35" y="890.15" angle="180.00" type="DEFAULT_VEHTYPE" speed="0.00" pos="5.10" lane="1/9to1/8_0" slope="0.00"/>
        <vehicle id="t17" x="-1.65" y="390.15" angle="180.00" type="DEFAULT_VEHTYPE" speed="0.00" pos="5.10" lane="0/4to0/3_0" slope="0.00"/>
        <vehicle id="t18" x="101.65" y="409.85" angle="0.00" type="DEFAULT_VEHTYPE" speed="0.00" pos="5.10" lane="1/4to1/5_0" slope="0.00"/>
        <vehicle id="t19" x="409.85" y="-1.65" angle="90.00" type="DEFAULT_VEHTYPE" speed="0.00" pos="5.10" lane="4/0to5/0_0" slope="0.00"/>
        <vehicle id="t2" x="290.15" y="701.65" angle="270.00" type="DEFAULT_VEHTYPE" speed="0.00" pos="5.10" lane="3/7to2/7_0" slope="0.00"/>
        <vehicle id="t20" x="509.85" y="498.35" angle="90.00" type="DEFAULT_VEHTYPE" speed="0.00" pos="5.10" lane="5/5to6/5_0" slope="0.00"/>
        <vehicle id="t21" x="698.35" y="90.15" angle="180.00" type="DEFAULT_VEHTYPE" speed="0.00" pos="5.10" lane="7/1to7/0_0" slope="0.00"/>
        <vehicle id="t22" x="301.65" y="609.85" angle="0.00" type="DEFAULT_VEHTYPE" speed="0.00" pos="5.10" lane="3/6to3/7_0" slope="0.00"/>
        <vehicle id="t25" x="798.35" y="90.15" angle="180.00" type="DEFAULT_VEHTYPE" speed="0.00" pos="5.10" lane="8/1to8/0_0" slope="0.00"/>
        <vehicle id="t26" x="498.35" y="490.15" angle="180.00" type="DEFAULT_VEHTYPE" speed="0.00" pos="5.10" lane="5/5to5/4_0" slope="0.00"/>
        <vehicle id="t27" x="501.65" y="609.85" angle="0.00" type="DEFAULT_VEHTYPE" speed="0.00" pos="5.10" lane="5/6to5/7_0" slope="0.00"/>
        <vehicle id="t28" x="201.65" y="809.85" angle="0.00" type="DEFAULT_VEHTYPE" speed="0.00" pos="5.10" lane="2/8to2/9_0" slope="0.00"/>
        <vehicle id="t29" x="798.35" y="890.15" angle="180.00" type="DEFAULT_VEHTYPE" speed="0.00" pos="5.10" lane="8/9to8/8_0" slope="0.00"/>
        <vehicle id="t3" x="898.35" y="590.15" angle="180.00" type="DEFAULT_VEHTYPE" speed="0.00" pos="5.10" lane="9/6to9/5_0" slope="0.00"/>
        <vehicle id="t30" x="301.65" y="109.85" angle="0.00" type="DEFAULT_VEHTYPE" speed="0.00" pos="5.10" lane="3/1to3/2_0" slope="0.00"/>
        <vehicle id="t31" x="890.15" y="801.65" angle="270.00" type="DEFAULT_VEHTYPE" speed="0.00" pos="5.10" lane="9/8to8/8_0" slope="0.00"/>
        <vehicle id="t32" x="9.85" y="798.35" angle="90.00" type="DEFAULT_VEHTYPE" speed="0.00" pos="5.10" lane="0/8to1/8_0" slope="0.00"/>
        <vehicle id="t33" x="801.65" y="9.85" angle="0.00" type="DEFAULT_VEHTYPE" speed="0.00" pos="5.10" lane="8/0to8/1_0" slope="0.00"/>
        <vehicle id="t34" x="790.15" y="701.65" angle="270.00" type="DEFAULT_VEHTYPE" speed="0.00" pos="5.10" lane="8/7to7/7_0" slope="0.00"/>
        <vehicle id="t36" x="709.85" y="298.35" angle="90.00" type="DEFAULT_VEHTYPE" speed="0.00" pos="5.10" lane="7/3to8/3_0" slope="0.00"/>
        <vehicle id="t37" x="898.35" y="490.15" angle="180.00" type="DEFAULT_VEHTYPE" speed="0.00" pos="5.10" lane="9/5to9/4_0" slope="0.00"/>
        <vehicle id="t38" x="509.85" y="898.35" angle="90.00" type="DEFAULT_VEHTYPE" speed="0.00" pos="5.10" lane="5/9to6/9_0" slope="0.00"/>
        <vehicle id="t39" x="-1.65" y="690.15" angle="180.00" type="DEFAULT_VEHTYPE" speed="0.00" pos="5.10" lane="0/7to0/6_0" slope="0.00"/>
        <vehicle id="t4" x="209.85" y="798.35" angle="90.00" type="DEFAULT_VEHTYPE" speed="0.00" pos="5.10" lane="2/8to3/8_0" slope="0.00"/>
        <vehicle id="t40" x="601.65" y="609.85" angle="0.00" type="DEFAULT_VEHTYPE" speed="0.00" pos="5.10" lane="6/6to6/7_0" slope="0.00"/>
        <vehicle id="t41" x="9.85" y="198.35" angle="90.00" type="DEFAULT_VEHTYPE" speed="0.00" pos="5.10" lane="0/2to1/2_0" slope="0.00"/>
        <vehicle id="t42" x="701.65" y="609.85" angle="0.00" type="DEFAULT_VEHTYPE" speed="0.00" pos="5.10" lane="7/6to7/7_0" slope="0.00"/>
        <vehicle id="t43" x="790.15" y="1.65" angle="270.00" type="DEFAULT_VEHTYPE" speed="0.00" pos="5.10" lane="8/0to7/0_0" slope="0.00"/>
        <vehicle id="t44" x="290.15" y="201.65" angle="270.00" type="DEFAULT_VEHTYPE" speed="0.00" pos="5.10" lane="3/2to2/2_0" slope="0.00"/>
        <vehicle id="t45" x="490.15" y="901.65" angle="270.00" type="DEFAULT_VEHTYPE" speed="0.00" pos="5.10" lane="5/9to4/9_0" slope="0.00"/>
        <vehicle id="t46" x="598.35" y="290.15" angle="180.00" type="DEFAULT_VEHTYPE" speed="0.00" pos="5.10" lane="6/3to6/2_0" slope="0.00"/>
        <vehicle id="t47" x="190.15" y="301.65" angle="270.00" type="DEFAULT_VEHTYPE" speed="0.00" pos="5.10" lane="2/3to1/3_0" slope="0.00"/>
        <vehicle id="t48" x="90.15" y="901.65" angle="270.00" type="DEFAULT_VEHTYPE" speed="0.00" pos="5.10" lane="1/9to0/9_0" slope="0.00"/>
        <vehicle id="t49" x="301.65" y="209.85" angle="0.00" type="DEFAULT_VEHTYPE" speed="0.00" pos="5.10" lane="3/2to3/3_0" slope="0.00"/>
        <vehicle id="t5" x="390.15" y="101.65" angle="270.00" type="DEFAULT_VEHTYPE" speed="0.00" pos="5.10" lane="4/1to3/1_0" slope="0.00"/>
        <vehicle id="t50" x="298.35" y="90.15" angle="180.00" type="DEFAULT_VEHTYPE" speed="0.00" pos="5.10" lane="3/1to3/0_0" slope="0.00"/>
        <vehicle id="t6" x="309.85" y="898.35" angle="90.00" type="DEFAULT_VEHTYPE" speed="0.00" pos="5.10" lane="3/9to4/9_0" slope="0.00"/>
        <vehicle id="t7" x="709.85" y="798.35" angle="90.00" type="DEFAULT_VEHTYPE" speed="0.00" pos="5.10" lane="7/8to8/8_0" slope="0.00"/>
        <vehicle id="t8" x="690.15" y="401.65" angle="270.00" type="DEFAULT_VEHTYPE" speed="0.00" pos="5.10" lane="7/4to6/4_0" slope="0.00"/>
        <vehicle id="t9" x="609.85" y="798.35" angle="90.00" type="DEFAULT_VEHTYPE" speed="0.00" pos="5.10" lane="6/8to7/8_0" slope="0.00"/>
    </timestep>
    <timestep time="1.00">
        <vehicle id="t0" x="88.79" y="401.65" angle="270.00" type="DEFAULT_VEHTYPE" speed="1.36" pos="6.46" lane="1/4to0/4_0" slope="0.00"/>
        <vehicle id="t1" x="411.61" y="898.35" angle="90.00" type="DEFAULT_VEHTYPE" speed="1.76" pos="6.86" lane="4/9to5/9_0" slope="0.00"/>
        <vehicle id="t10" x="798.35" y="688.77" angle="180.00" type="DEFAULT_VEHTYPE" speed="1.38" pos="6.48" lane="8/7to8/6_0" slope="0.00"/>
        <vehicle id="t11" x="188.01" y="201.65" angle="270.00" type="DEFAULT_VEHTYPE" speed="2.14" pos="7.24" lane="2/2to1/2_0" slope="0.00"/>
        <vehicle id="t12" x="298.35" y="388.64" angle="180.00" type="DEFAULT_VEHTYPE" speed="1.51" pos="6.61" lane="3/4to3/3_0" slope="0.00"/>
        <vehicle id="t13" x="198.35" y="488.40" angle="180.00" type="DEFAULT_VEHTYPE" speed="1.75" pos="6.85" lane="2/5to2/4_0" slope="0.00"/>
        <vehicle id="t14" x="701.65" y="211.26" angle="0.00" type="DEFAULT_VEHTYPE" speed="1.41" pos="6.51" lane="7/2to7/3_0" slope="0.00"/>
        <vehicle id="t15" x="588.40" y="1.65" angle="270.00" type="DEFAULT_VEHTYPE" speed="1.75" pos="6.85" lane="6/0to5/0_0" slope="0.00"/>
        <vehicle id="t16" x="98.35" y="888.23" angle="180.00" type="DEFAULT_VEHTYPE" speed="1.92" pos="7.02" lane="1/9to1/8_0" slope="0.00"/>
        <vehicle id="t17" x="-1.65" y="387.60" angle="180.00" type="DEFAULT_VEHTYPE" speed="2.55" pos="7.65" lane="0/4to0/3_0" slope="0.00"/>
        <vehicle id="t18" x="101.65" y="412.36" angle="0.00" type="DEFAULT_VEHTYPE" speed="2.51" pos="7.61" lane="1/4to1/5_0" slope="0.00"/>
        <vehicle id="t19" x="411.98" y="-1.65" angle="90.00" type="DEFAULT_VEHTYPE" speed="2.13" pos="7.23" lane="4/0to5/0_0" slope="0.00"/>
        <vehicle id="t2" x="287.60" y="701.65" angle="270.00" type="DEFAULT_VEHTYPE" speed="2.55" pos="7.65" lane="3/7to2/7_0" slope="0.00"/>
        <vehicle id="t20" x="512.21" y="498.35" angle="90.00" type="DEFAULT_VEHTYPE" speed="2.36" pos="7.46" lane="5/5to6/5_0" slope="0.00"/>
        <vehicle id="t21" x="698.35" y="88.36" angle="180.00" type="DEFAULT_VEHTYPE" speed="1.79" pos="6.89" lane="7/1to7/0_0" slope="0.00"/>
        <vehicle id="t22" x="301.65" y="611.83" angle="0.00" type="DEFAULT_VEHTYPE" speed="1.98" pos="7.08" lane="3/6to3/7_0" slope="0.00"/>
        <vehicle id="t25" x="798.35" y="87.83" angle="180.00" type="DEFAULT_VEHTYPE" speed="2.32" pos="7.42" lane="8/1to8/0_0" slope="0.00"/>
        <vehicle id="t26" x="498.35" y="488.16" angle="180.00" type="DEFAULT_VEHTYPE" speed="1.99" pos="7.09" lane="5/5to5/4_0" slope="0.00"/>
        <vehicle id="t27" x="501.65" y="611.70" angle="0.00" type="DEFAULT_VEHTYPE" speed="1.85" pos="6.95" lane="5/6to5/7_0" slope="0.00"/>
        <vehicle id="t28" x="201.65" y="811.25" angle="0.00" type="DEFAULT_VEHTYPE" speed="1.40" pos="6.50" lane="2/8to2/9_0" slope="0.00"/>
        <vehicle id="t29" x="798.35" y="888.79" angle="180.00" type="DEFAULT_VEHTYPE" speed="1.36" pos="6.46" lane="8/9to8/8_0" slope="0.00"/>
        <vehicle id="t3" x="898.35" y="588.13" angle="180.00" type="DEFAULT_VEHTYPE" speed="2.02" pos="7.12" lane="9/6to9/5_0" slope="0.00"/>
        <vehicle id="t30" x="301.65" y="111.97" angle="0.00" type="DEFAULT_VEHTYPE" speed="2.12" pos="7.22" lane="3/1to3/2_0" slope="0.00"/>
        <vehicle id="t31" x="888.11" y="801.65" angle="270.00" type="DEFAULT_VEHTYPE" speed="2.04" pos="7.14" lane="9/8to8/8_0" slope="0.00"/>
        <vehicle id="t32" x="12.45" y="798.35" angle="90.00" type="DEFAULT_VEHTYPE" speed="2.60" pos="7.70" lane="0/8to1/8_0" slope="0.00"/>
        <vehicle id="t33" x="801.65" y="11.81" angle="0.00" type="DEFAULT_VEHTYPE" speed="1.96" pos="7.06" lane="8/0to8/1_0" slope="0.00"/>
        <vehicle id="t34" x="787.94" y="701.65" angle="270.00" type="DEFAULT_VEHTYPE" speed="2.21" pos="7.31" lane="8/7to7/7_0" slope="0.00"/>
        <vehicle id="t36" x="711.95" y="298.35" angle="90.00" type="DEFAULT_VEHTYPE" speed="2.10" pos="7.20" lane="7/3to8/3_0" slope="0.00"/>
        <vehicle id="t37" x="898.35" y="487.81" angle="180.00" type="DEFAULT_VEHTYPE" speed="2.34" pos="7.44" lane="9/5to9/4_0" slope="0.00"/>
        <vehicle id="t38" x="512.05" y="898.35" angle="90.00" type="DEFAULT_VEHTYPE" speed="2.20" pos="7.30" lane="5/9to6/9_0" slope="0.00"/>
        <vehicle id="t39" x="-1.65" y="688.83" angle="180.00" type="DEFAULT_VEHTYPE" speed="1.32" pos="6.42" lane="0/7to0/6_0" slope="0.00"/>
        <vehicle id="t4" x="211.19" y="798.35" angle="90.00" type="DEFAULT_VEHTYPE" speed="1.34" pos="6.44" lane="2/8to3/8_0" slope="0.00"/>
        <vehicle id="t40" x="601.65" y="612.33" angle="0.00" type="DEFAULT_VEHTYPE" speed="2.48" pos="7.58" lane="6/6to6/7_0" slope="0.00"/>
        <vehicle id="t41" x="11.23" y="198.35" angle="90.00" type="DEFAULT_VEHTYPE" speed="1.38" pos="6.48" lane="0/2to1/2_0" slope="0.00"/>
        <vehicle id="t42" x="701.65" y="611.53" angle="0.00" type="DEFAULT_VEHTYPE" speed="1.68" pos="6.78" lane="7/6to7/7_0" slope="0.00"/>
        <vehicle id="t43" x="788.33" y="1.65" angle="270.00" type="DEFAULT_VEHTYPE" speed="1.82" pos="6.92" lane="8/0to7/0_0" slope="0.00"/>
        <vehicle id="t44" x="287.63" y="201.65" angle="270.00" type="DEFAULT_VEHTYPE" speed="2.52" pos="7.62" lane="3/2to2/2_0" slope="0.00"/>
        <vehicle id="t45" x="487.90" y="901.65" angle="270.00" type="DEFAULT_VEHTYPE" speed="2.25" pos="7.35" lane="5/9to4/9_0" slope="0.00"/>
        <vehicle id="t46" x="598.35" y="288.14" angle="180.00" type="DEFAULT_VEHTYPE" speed="2.01" pos="7.11" lane="6/3to6/2_0" slope="0.00"/>
        <vehicle id="t47" x="188.48" y="301.65" angle="270.00" type="DEFAULT_VEHTYPE" speed="1.67" pos="6.77" lane="2/3to1/3_0" slope="0.00"/>
        <vehicle id="t48" x="87.68" y="901.65" angle="270.00" type="DEFAULT_VEHTYPE" speed="2.47" pos="7.57" lane="1/9to0/9_0" slope="0.00"/>
        <vehicle id="t49" x="301.65" y="211.64" angle="0.00" type="DEFAULT_VEHTYPE" speed="1.79" pos="6.89" lane="3/2to3/3_0" slope="0.00"/>
        <vehicle id="t5" x="387.94" y="101.65" angle="270.00" type="DEFAULT_VEHTYPE" speed="2.21" pos="7.31" lane="4/1to3/1_0" slope="0.00"/>
        <vehicle id="t50" x="298.35" y="88.48" angle="180.00" type="DEFAULT_VEHTYPE" speed="1.67" pos="6.77" lane="3/1to3/0_0" slope="0.00"/>
        <vehicle id="t6" x="311.74" y="898.35" angle="90.00" type="DEFAULT_VEHTYPE" speed="1.89" pos="6.99" lane="3/9to4/9_0" slope="0.00"/>
        <vehicle id="t7" x="711.84" y="798.35" angle="90.00" type="DEFAULT_VEHTYPE" speed="1.99" pos="7.09" lane="7/8to8/8_0" slope="0.00"/>
        <vehicle id="t8" x="688.26" y="401.65" angle="270.00" type="DEFAULT_VEHTYPE" speed="1.89" pos="6.99" lane="7/4to6/4_0" slope="0.00"/>
        <vehicle id="t9" x="611.43" y="798.35" angle="90.00" type="DEFAULT_VEHTYPE" speed="1.58" pos="6.68" lane="6/8to7/8_0" slope="0.00"/>
    </timestep>
    <timestep time="2.00">
        <vehicle id="t0" x="85.93" y="401.65" angle="270.00" type="DEFAULT_VEHTYPE" speed="2.86" pos="9.32" lane="1/4to0/4_0" slope="0.00"/>
        <vehicle id="t1" x="415.33" y="898.35" angle="90.00" type="DEFAULT_VEHTYPE" speed="3.72" pos="10.58" lane="4/9to5/9_0" slope="0.00"/>
        <vehicle id="t10" x="798.35" y="686.07" angle="180.00" type="DEFAULT_VEHTYPE" speed="2.70" pos="9.18" lane="8/7to8/6_0" slope="0.00"/>
        <vehicle id="t11" x="184.33" y="201.65" angle="270.00" type="DEFAULT_VEHTYPE" speed="3.68" pos="10.92" lane="2/2to1/2_0" slope="0.00"/>
        <vehicle id="t12" x="298.35" y="384.94" angle="180.00" type="DEFAULT_VEHTYPE" speed="3.70" pos="10.31" lane="3/4to3/3_0" slope="0.00"/>
        <vehicle id="t13" x="198.35" y="484.43" angle="180.00" type="DEFAULT_VEHTYPE" speed="3.97" pos="10.82" lane="2/5to2/4_0" slope="0.00"/>
        <vehicle id="t14" x="701.65" y="214.29" angle="0.00" type="DEFAULT_VEHTYPE" speed="3.03" pos="9.54" lane="7/2to7/3_0" slope="0.00"/>
        <vehicle id="t15" x="584.74" y="1.65" angle="270.00" type="DEFAULT_VEHTYPE" speed="3.66" pos="10.51" lane="6/0to5/0_0" slope="0.00"/>
        <vehicle id="t16" x="98.35" y="884.59" angle="180.00" type="DEFAULT_VEHTYPE" speed="3.64" pos="10.66" lane="1/9to1/8_0" slope="0.00"/>
        <vehicle id="t17" x="-1.65" y="382.84" angle="180.00" type="DEFAULT_VEHTYPE" speed="4.76" pos="12.41" lane="0/4to0/3_0" slope="0.00"/>
        <vehicle id="t18" x="101.65" y="416.20" angle="0.00" type="DEFAULT_VEHTYPE" speed="3.85" pos="11.45" lane="1/4to1/5_0" slope="0.00"/>
        <vehicle id="t19" x="415.87" y="-1.65" angle="90.00" type="DEFAULT_VEHTYPE" speed="3.89" pos="11.12" lane="4/0to5/0_0" slope="0.00"/>
        <vehicle id="t2" x="282.52" y="701.65" angle="270.00" type="DEFAULT_VEHTYPE" speed="5.08" pos="12.73" lane="3/7to2/7_0" slope="0.00"/>
        <vehicle id="t20" x="516.19" y="498.35" angle="90.00" type="DEFAULT_VEHTYPE" speed="3.98" pos="11.44" lane="5/5to6/5_0" slope="0.00"/>
        <vehicle id="t21" x="698.35" y="84.47" angle="180.00" type="DEFAULT_VEHTYPE" speed="3.90" pos="10.78" lane="7/1to7/0_0" slope="0.00"/>
        <vehicle id="t22" x="301.65" y="615.14" angle="0.00" type="DEFAULT_VEHTYPE" speed="3.31" pos="10.39" lane="3/6to3/7_0" slope="0.00"/>
        <vehicle id="t25" x="798.35" y="83.04" angle="180.00" type="DEFAULT_VEHTYPE" speed="4.78" pos="12.21" lane="8/1to8/0_0" slope="0.00"/>
        <vehicle id="t26" x="498.35" y="484.32" angle="180.00" type="DEFAULT_VEHTYPE" speed="3.84" pos="10.93" lane="5/5to5/4_0" slope="0.00"/>
        <vehicle id="t27" x="501.65" y="615.46" angle="0.00" type="DEFAULT_VEHTYPE" speed="3.76" pos="10.71" lane="5/6to5/7_0" slope="0.00"/>
        <vehicle id="t28" x="201.65" y="814.29" angle="0.00" type="DEFAULT_VEHTYPE" speed="3.04" pos="9.54" lane="2/8to2/9_0" slope="0.00"/>
        <vehicle id="t29" x="798.35" y="885.70" angle="180.00" type="DEFAULT_VEHTYPE" speed="3.09" pos="9.55" lane="8/9to8/8_0" slope="0.00"/>
        <vehicle id="t3" x="898.35" y="584.28" angle="180.00" type="DEFAULT_VEHTYPE" speed="3.85" pos="10.97" lane="9/6to9/5_0" slope="0.00"/>
        <vehicle id="t30" x="301.65" y="115.71" angle="0.00" type="DEFAULT_VEHTYPE" speed="3.74" pos="10.96" lane="3/1to3/2_0" slope="0.00"/>
        <vehicle id="t31" x="883.91" y="801.65" angle="270.00" type="DEFAULT_VEHTYPE" speed="4.19" pos="11.34" lane="9/8to8/8_0" slope="0.00"/>
        <vehicle id="t32" x="16.79" y="798.35" angle="90.00" type="DEFAULT_VEHTYPE" speed="4.34" pos="12.04" lane="0/8to1/8_0" slope="0.00"/>
        <vehicle id="t33" x="801.65" y="16.25" angle="0.00" type="DEFAULT_VEHTYPE" speed="4.44" pos="11.50" lane="8/0to8/1_0" slope="0.00"/>
        <vehicle id="t34" x="783.93" y="701.65" angle="270.00" type="DEFAULT_VEHTYPE" speed="4.02" pos="11.32" lane="8/7to7/7_0" slope="0.00"/>
        <vehicle id="t36" x="715.66" y="298.35" angle="90.00" type="DEFAULT_VEHTYPE" speed="3.71" pos="10.91" lane="7/3to8/3_0" slope="0.00"/>
        <vehicle id="t37" x="898.35" y="484.03" angle="180.00" type="DEFAULT_VEHTYPE" speed="3.78" pos="11.22" lane="9/5to9/4_0" slope="0.00"/>
        <vehicle id="t38" x="515.95" y="898.35" angle="90.00" type="DEFAULT_VEHTYPE" speed="3.91" pos="11.20" lane="5/9to6/9_0" slope="0.00"/>
        <vehicle id="t39" x="-1.65" y="685.01" angle="180.00" type="DEFAULT_VEHTYPE" speed="3.82" pos="10.24" lane="0/7to0/6_0" slope="0.00"/>
        <vehicle id="t4" x="214.59" y="798.35" angle="90.00" type="DEFAULT_VEHTYPE" speed="3.40" pos="9.84" lane="2/8to3/8_0" slope="0.00"/>
        <vehicle id="t40" x="601.65" y="617.24" angle="0.00" type="DEFAULT_VEHTYPE" speed="4.91" pos="12.49" lane="6/6to6/7_0" slope="0.00"/>
        <vehicle id="t41" x="14.30" y="198.35" angle="90.00" type="DEFAULT_VEHTYPE" speed="3.07" pos="9.55" lane="0/2to1/2_0" slope="0.00"/>
        <vehicle id="t42" x="701.65" y="614.58" angle="0.00" type="DEFAULT_VEHTYPE" speed="3.05" pos="9.83" lane="7/6to7/7_0" slope="0.00"/>
        <vehicle id="t43" x="784.08" y="1.65" angle="270.00" type="DEFAULT_VEHTYPE" speed="4.25" pos="11.17" lane="8/0to7/0_0" slope="0.00"/>
        <vehicle id="t44" x="283.48" y="201.65" angle="270.00" type="DEFAULT_VEHTYPE" speed="4.15" pos="11.77" lane="3/2to2/2_0" slope="0.00"/>
        <vehicle id="t45" x="483.18" y="901.65" angle="270.00" type="DEFAULT_VEHTYPE" speed="4.72" pos="12.07" lane="5/9to4/9_0" slope="0.00"/>
        <vehicle id="t46" x="598.35" y="284.59" angle="180.00" type="DEFAULT_VEHTYPE" speed="3.55" pos="10.66" lane="6/3to6/2_0" slope="0.00"/>
        <vehicle id="t47" x="185.35" y="301.65" angle="270.00" type="DEFAULT_VEHTYPE" speed="3.14" pos="9.90" lane="2/3to1/3_0" slope="0.00"/>
        <vehicle id="t48" x="83.70" y="901.65" angle="270.00" type="DEFAULT_VEHTYPE" speed="3.99" pos="11.55" lane="1/9to0/9_0" slope="0.00"/>
        <vehicle id="t49" x="301.65" y="215.40" angle="0.00" type="DEFAULT_VEHTYPE" speed="3.76" pos="10.65" lane="3/2to3/3_0" slope="0.00"/>
        <vehicle id="t5" x="383.44" y="101.65" angle="270.00" type="DEFAULT_VEHTYPE" speed="4.51" pos="11.81" lane="4/1to3/1_0" slope="0.00"/>
        <vehicle id="t50" x="298.35" y="84.45" angle="180.00" type="DEFAULT_VEHTYPE" speed="4.03" pos="10.80" lane="3/1to3/0_0" slope="0.00"/>
        <vehicle id="t6" x="316.11" y="898.35" angle="90.00" type="DEFAULT_VEHTYPE" speed="4.37" pos="11.36" lane="3/9to4/9_0" slope="0.00"/>
        <vehicle id="t7" x="715.32" y="798.35" angle="90.00" type="DEFAULT_VEHTYPE" speed="3.48" pos="10.57" lane="7/8to8/8_0" slope="0.00"/>
        <vehicle id="t8" x="684.03" y="401.65" angle="270.00" type="DEFAULT_VEHTYPE" speed="4.23" pos="11.22" lane="7/4to6/4_0" slope="0.00"/>
        <vehicle id="t9" x="615.39" y="798.35" angle="90.00" type="DEFAULT_VEHTYPE" speed="3.96" pos="10.64" lane="6/8to7/8_0" slope="0.00"/>
    </timestep>
    <timestep time="3.00">
        <vehicle id="t0" x="81.61" y="401.65" angle="270.00" type="DEFAULT_VEHTYPE" speed="4.32" pos="13.64" lane="1/4to0/4_0" slope="0.00"/>
        <vehicle id="t1" x="420.47" y="898.35" angle="90.00" type="DEFAULT_VEHTYPE" speed="5.14" pos="15.72" lane="4/9to5/9_0" slope="0.00"/>
        <vehicle id="t10" x="798.35" y="681.93" angle="180.00" type="DEFAULT_VEHTYPE" speed="4.14" pos="13.32" lane="8/7to8/6_0" slope="0.00"/>
        <vehicle id="t11" x="178.70" y="201.65" angle="270.00" type="DEFAULT_VEHTYPE" speed="5.62" pos="16.55" lane="2/2to1/2_0" slope="0.00"/>
        <vehicle id="t12" x="298.35" y="378.79" angle="180.00" type="DEFAULT_VEHTYPE" speed="6.15" pos="16.46" lane="3/4to3/3_0" slope="0.00"/>
        <vehicle id="t13" x="198.35" y="478.78" angle="180.00" type="DEFAULT_VEHTYPE" speed="5.65" pos="16.47" lane="2/5to2/4_0" slope="0.00"/>
        <vehicle id="t14" x="701.65" y="219.44" angle="0.00" type="DEFAULT_VEHTYPE" speed="5.15" pos="14.69" lane="7/2to7/3_0" slope="0.00"/>
        <vehicle id="t15" x="579.00" y="1.65" angle="270.00" type="DEFAULT_VEHTYPE" speed="5.75" pos="16.25" lane="6/0to5/0_0" slope="0.00"/>
        <vehicle id="t16" x="98.35" y="878.95" angle="180.00" type="DEFAULT_VEHTYPE" speed="5.64" pos="16.30" lane="1/9to1/8_0" slope="0.00"/>
        <vehicle id="t17" x="-1.65" y="375.67" angle="180.00" type="DEFAULT_VEHTYPE" speed="7.17" pos="19.58" lane="0/4to0/3_0" slope="0.00"/>
        <vehicle id="t18" x="101.65" y="421.42" angle="0.00" type="DEFAULT_VEHTYPE" speed="5.21" pos="16.67" lane="1/4to1/5_0" slope="0.00"/>
        <vehicle id="t19" x="422.09" y="-1.65" angle="90.00" type="DEFAULT_VEHTYPE" speed="6.22" pos="17.34" lane="4/0to5/0_0" slope="0.00"/>
        <vehicle id="t2" x="275.44" y="701.65" angle="270.00" type="DEFAULT_VEHTYPE" speed="7.07" pos="19.81" lane="3/7to2/7_0" slope="0.00"/>
        <vehicle id="t20" x="521.91" y="498.35" angle="90.00" type="DEFAULT_VEHTYPE" speed="5.72" pos="17.16" lane="5/5to6/5_0" slope="0.00"/>
        <vehicle id="t21" x="698.35" y="79.14" angle="180.00" type="DEFAULT_VEHTYPE" speed="5.32" pos="16.11" lane="7/1to7/0_0" slope="0.00"/>
        <vehicle id="t22" x="301.65" y="619.90" angle="0.00" type="DEFAULT_VEHTYPE" speed="4.75" pos="15.15" lane="3/6to3/7_0" slope="0.00"/>
        <vehicle id="t23" x="390.15" y="101.65" angle="270.00" type="DEFAULT_VEHTYPE" speed="0.00" pos="5.10" lane="4/1to3/1_0" slope="0.00"/>
        <vehicle id="t24" x="701.65" y="209.85" angle="0.00" type="DEFAULT_VEHTYPE" speed="0.00" pos="5.10" lane="7/2to7/3_0" slope="0.00"/>
        <vehicle id="t25" x="798.35" y="76.53" angle="180.00" type="DEFAULT_VEHTYPE" speed="6.51" pos="18.72" lane="8/1to8/0_0" slope="0.00"/>
        <vehicle id="t26" x="498.35" y="477.92" angle="180.00" type="DEFAULT_VEHTYPE" speed="6.39" pos="17.33" lane="5/5to5/4_0" slope="0.00"/>
        <vehicle id="t27" x="501.65" y="620.84" angle="0.00" type="DEFAULT_VEHTYPE" speed="5.38" pos="16.09" lane="5/6to5/7_0" slope="0.00"/>
        <vehicle id="t28" x="201.65" y="819.71" angle="0.00" type="DEFAULT_VEHTYPE" speed="5.42" pos="14.96" lane="2/8to2/9_0" slope="0.00"/>
        <vehicle id="t29" x="798.35" y="880.34" angle="180.00" type="DEFAULT_VEHTYPE" speed="5.36" pos="14.91" lane="8/9to8/8_0" slope="0.00"/>
        <vehicle id="t3" x="898.35" y="578.08" angle="180.00" type="DEFAULT_VEHTYPE" speed="6.19" pos="17.17" lane="9/6to9/5_0" slope="0.00"/>
        <vehicle id="t30" x="301.65" y="121.56" angle="0.00" type="DEFAULT_VEHTYPE" speed="5.85" pos="16.81" lane="3/1to3/2_0" slope="0.00"/>
        <vehicle id="t31" x="878.01" y="801.65" angle="270.00" type="DEFAULT_VEHTYPE" speed="5.90" pos="17.24" lane="9/8to8/8_0" slope="0.00"/>
        <vehicle id="t32" x="23.34" y="798.35" angle="90.00" type="DEFAULT_VEHTYPE" speed="6.55" pos="18.59" lane="0/8to1/8_0" slope="0.00"/>
        <vehicle id="t33" x="801.65" y="22.08" angle="0.00" type="DEFAULT_VEHTYPE" speed="5.83" pos="17.33" lane="8/0to8/1_0" slope="0.00"/>
        <vehicle id="t34" x="777.75" y="701.65" angle="270.00" type="DEFAULT_VEHTYPE" speed="6.18" pos="17.50" lane="8/7to7/7_0" slope="0.00"/>
        <vehicle id="t35" x="101.65" y="409.85" angle="0.00" type="DEFAULT_VEHTYPE" speed="0.00" pos="5.10" lane="1/4to1/5_0" slope="0.00"/>
        <vehicle id="t36" x="721.72" y="298.35" angle="90.00" type="DEFAULT_VEHTYPE" speed="6.06" pos="16.97" lane="7/3to8/3_0" slope="0.00"/>
        <vehicle id="t37" x="898.35" y="477.80" angle="180.00" type="DEFAULT_VEHTYPE" speed="6.23" pos="17.45" lane="9/5to9/4_0" slope="0.00"/>
        <vehicle id="t38" x="521.45" y="898.35" angle="90.00" type="DEFAULT_VEHTYPE" speed="5.50" pos="16.70" lane="5/9to6/9_0" slope="0.00"/>
        <vehicle id="t39" x="-1.65" y="678.93" angle="180.00" type="DEFAULT_VEHTYPE" speed="6.09" pos="16.32" lane="0/7to0/6_0" slope="0.00"/>
        <vehicle id="t4" x="219.59" y="798.35" angle="90.00" type="DEFAULT_VEHTYPE" speed="5.00" pos="14.84" lane="2/8to3/8_0" slope="0.00"/>
        <vehicle id="t40" x="601.65" y="623.56" angle="0.00" type="DEFAULT_VEHTYPE" speed="6.32" pos="18.81" lane="6/6to6/7_0" slope="0.00"/>
        <vehicle id="t41" x="19.09" y="198.35" angle="90.00" type="DEFAULT_VEHTYPE" speed="4.79" pos="14.34" lane="0/2to1/2_0" slope="0.00"/>
        <vehicle id="t42" x="701.65" y="620.14" angle="0.00" type="DEFAULT_VEHTYPE" speed="5.55" pos="15.39" lane="7/6to7/7_0" slope="0.00"/>
        <vehicle id="t43" x="778.07" y="1.65" angle="270.00" type="DEFAULT_VEHTYPE" speed="6.01" pos="17.18" lane="8/0to7/0_0" slope="0.00"/>
        <vehicle id="t44" x="277.78" y="201.65" angle="270.00" type="DEFAULT_VEHTYPE" speed="5.70" pos="17.47" lane="3/2to2/2_0" slope="0.00"/>
        <vehicle id="t45" x="477.12" y="901.65" angle="270.00" type="DEFAULT_VEHTYPE" speed="6.06" pos="18.13" lane="5/9to4/9_0" slope="0.00"/>
        <vehicle id="t46" x="598.35" y="279.60" angle="180.00" type="DEFAULT_VEHTYPE" speed="4.99" pos="15.65" lane="6/3to6/2_0" slope="0.00"/>
        <vehicle id="t47" x="179.62" y="301.65" angle="270.00" type="DEFAULT_VEHTYPE" speed="5.73" pos="15.63" lane="2/3to1/3_0" slope="0.00"/>
        <vehicle id="t48" x="77.65" y="901.65" angle="270.00" type="DEFAULT_VEHTYPE" speed="6.04" pos="17.60" lane="1/9to0/9_0" slope="0.00"/>
        <vehicle id="t49" x="301.65" y="220.89" angle="0.00" type="DEFAULT_VEHTYPE" speed="5.49" pos="16.14" lane="3/2to3/3_0" slope="0.00"/>
        <vehicle id="t5" x="376.53" y="101.65" angle="270.00" type="DEFAULT_VEHTYPE" speed="6.90" pos="18.72" lane="4/1to3/1_0" slope="0.00"/>
        <vehicle id="t50" x="298.35" y="77.85" angle="180.00" type="DEFAULT_VEHTYPE" speed="6.61" pos="17.40" lane="3/1to3/0_0" slope="0.00"/>
        <vehicle id="t6" x="323.00" y="898.35" angle="90.00" type="DEFAULT_VEHTYPE" speed="6.88" pos="18.25" lane="3/9to4/9_0" slope="0.00"/>
        <vehicle id="t7" x="720.81" y="798.35" angle="90.00" type="DEFAULT_VEHTYPE" speed="5.49" pos="16.06" lane="7/8to8/8_0" slope="0.00"/>
        <vehicle id="t8" x="678.47" y="401.65" angle="270.00" type="DEFAULT_VEHTYPE" speed="5.56" pos="16.78" lane="7/4to6/4_0" slope="0.00"/>
        <vehicle id="t9" x="620.95" y="798.35" angle="90.00" type="DEFAULT_VEHTYPE" speed="5.57" pos="16.20" lane="6/8to7/8_0" slope="0.00"/>
    </timestep>
    <timestep time="4.00">
        <vehicle id="t0" x="74.74" y="401.65" angle="270.00" type="DEFAULT_VEHTYPE" speed="6.87" pos="20.51" lane="1/4to0/4_0" slope="0.00"/>
        <vehicle id="t1" x="427.11" y="898.35" angle="90.00" type="DEFAULT_VEHTYPE" speed="6.64" pos="22.36" lane="4/9to5/9_0" slope="0.00"/>
        <vehicle id="t10" x="798.35" y="675.24" angle="180.00" type="DEFAULT_VEHTYPE" speed="6.69" pos="20.01" lane="8/7to8/6_0" slope="0.00"/>
        <vehicle id="t11" x="171.38" y="201.65" angle="270.00" type="DEFAULT_VEHTYPE" speed="7.32" pos="23.87" lane="2/2to1/2_0" slope="0.00"/>
        <vehicle id="t12" x="298.35" y="370.68" angle="180.00" type="DEFAULT_VEHTYPE" speed="8.12" pos="24.57" lane="3/4to3/3_0" slope="0.00"/>
        <vehicle id="t13" x="198.35" y="471.07" angle="180.00" type="DEFAULT_VEHTYPE" speed="7.71" pos="24.18" lane="2/5to2/4_0" slope="0.00"/>
        <vehicle id="t14" x="701.65" y="226.27" angle="0.00" type="DEFAULT_VEHTYPE" speed="6.83" pos="21.52" lane="7/2to7/3_0" slope="0.00"/>
        <vehicle id="t15" x="571.67" y="1.65" angle="270.00" type="DEFAULT_VEHTYPE" speed="7.33" pos="23.58" lane="6/0to5/0_0" slope="0.00"/>